
                                 *****************
                                 * O   R   C   A *
                                 *****************

                                            #,                                       
                                            ###                                      
                                            ####                                     
                                            #####                                    
                                            ######                                   
                                           ########,                                 
                                     ,,################,,,,,                         
                               ,,#################################,,                 
                          ,,##########################################,,             
                       ,#########################################, ''#####,          
                    ,#############################################,,   '####,        
                  ,##################################################,,,,####,       
                ,###########''''           ''''###############################       
              ,#####''   ,,,,##########,,,,          '''####'''          '####       
            ,##' ,,,,###########################,,,                        '##       
           ' ,,###''''                  '''############,,,                           
         ,,##''                                '''############,,,,        ,,,,,,###''
      ,#''                                            '''#######################'''  
     '                                                          ''''####''''         
             ,#######,   #######,   ,#######,      ##                                
            ,#'     '#,  ##    ##  ,#'     '#,    #''#        ,####,   ,####,        
            ##       ##  ##   ,#'  ##            #'  '#       #'       #'  '#        
            ##       ##  #######   ##           ,######,      #####,   #    #        
            '#,     ,#'  ##    ##  '#,     ,#' ,#      #,     #,   #   #,  ,#        
             '#######'   ##     ##  '#######'  #'      '#     '####' # '####'        



                #########################################################
                #                        -***-                          #
                #          Department of theory and spectroscopy        #
                #                                                       #
                #                      Frank Neese                      #
                #                                                       #
                #     Directorship, Architecture, Infrastructure        #
                #                    SHARK, DRIVERS                     #
                #        Core code/Algorithms in most modules           #
                #                                                       #
                #        Max Planck Institute fuer Kohlenforschung      #
                #                Kaiser Wilhelm Platz 1                 #
                #                 D-45470 Muelheim/Ruhr                 #
                #                      Germany                          #
                #                                                       #
                #                  All rights reserved                  #
                #                        -***-                          #
                #########################################################


                         Program Version 6.0.0  -   RELEASE  -


 With contributions from (in alphabetic order):
   Daniel Aravena         : Magnetic Suceptibility
   Michael Atanasov       : Ab Initio Ligand Field Theory (pilot matlab implementation)
   Alexander A. Auer      : GIAO ZORA, VPT2 properties, NMR spectrum
   Ute Becker             : All parallelization in ORCA, NUMFREQ, NUMCALC
   Giovanni Bistoni       : ED, misc. LED, open-shell LED, HFLD
   Martin Brehm           : Molecular dynamics
   Dmytro Bykov           : pre 5.0 version of the SCF Hessian
   Marcos Casanova-Páez   : Triplet and SCS-CIS(D). UHF-(DLPNO)-IP/EA/STEOM-CCSD. UHF-CVS-IP/STEOM-CCSD
   Vijay G. Chilkuri      : MRCI spin determinant printing, contributions to CSF-ICE
   Pauline Colinet        : FMM embedding
   Dipayan Datta          : RHF DLPNO-CCSD density
   Achintya Kumar Dutta   : EOM-CC, STEOM-CC
   Nicolas Foglia         : Exact transition moments, OPA infrastructure, MCD improvements
   Dmitry Ganyushin       : Spin-Orbit,Spin-Spin,Magnetic field MRCI
   Miquel Garcia          : C-PCM and meta-GGA Hessian, CCSD/C-PCM, Gaussian charge scheme
   Tiago L. C. Gouveia    : GS-ROHF, GS-ROCIS
   Yang Guo               : DLPNO-NEVPT2, F12-NEVPT2, CIM, IAO-localization
   Andreas Hansen         : Spin unrestricted coupled pair/coupled cluster methods
   Ingolf Harden          : AUTO-CI MPn and infrastructure 
   Benjamin Helmich-Paris : MC-RPA, TRAH-(SCF,CASSCF), AVAS, COSX integrals, SCF dyn. polar.
   Lee Huntington         : MR-EOM, pCC
   Robert Izsak           : Overlap fitted RIJCOSX, COSX-SCS-MP3, EOM
   Riya Kayal             : Wick's Theorem for AUTO-CI, AUTO-CI UHF-CCSDT
   Emily Kempfer          : AUTO-CI, RHF CISDT and CCSDT
   Christian Kollmar      : KDIIS, OOCD, Brueckner-CCSD(T), CCSD density, CASPT2, CASPT2-K, improved NEVPT2
   Axel Koslowski         : Symmetry handling
   Simone Kossmann        : Meta GGA functionals, TD-DFT gradient, OOMP2, (MP2 Hessian; deprecated post 5.0)
   Lucas Lang             : DCDCAS
   Marvin Lechner         : AUTO-CI (C++ implementation), FIC-MRCC
   Spencer Leger          : CASSCF response
   Dagmar Lenk            : GEPOL surface, SMD, ORCA-2-JSON
   Dimitrios Liakos       : Extrapolation schemes; Compound Job, initial MDCI parallelization
   Dimitrios Manganas     : Further ROCIS development; embedding schemes. LFT, Crystal Embedding
   Dimitrios Pantazis     : SARC Basis sets
   Anastasios Papadopoulos: AUTO-CI, single reference methods and gradients
   Taras Petrenko         : pre 6.0 DFT Hessian and TD-DFT gradient, (ASA, deprecated), ECA, 1-Electron XAS/XES, NRVS
   Peter Pinski           : DLPNO-MP2, DLPNO-MP2 Gradient
   Christoph Reimann      : Effective Core Potentials
   Marius Retegan         : Local ZFS, SOC
   Christoph Riplinger    : Optimizer, TS searches, QM/MM, DLPNO-CCSD(T), (RO)-DLPNO pert. Triples
   Michael Roemelt        : Original ROCIS implementation
   Masaaki Saitow         : Open-shell DLPNO-CCSD energy and density
   Barbara Sandhoefer     : DKH picture change effects
   Kantharuban Sivalingam : CASSCF convergence/infrastructure, NEVPT2 and variants, FIC-MRCI
   Bernardo de Souza      : ESD, SOC TD-DFT
   Georgi Stoychev        : AutoAux, RI-MP2 NMR, DLPNO-MP2 response, X2C
   Van Anh Tran           : RI-MP2 g-tensors
   Willem Van den Heuvel  : Paramagnetic NMR
   Zikuan Wang            : NOTCH, Electric field optimization 
   Frank Wennmohs         : Technical directorship and infrastructure
   Hang Xu                : AUTO-CI-Response properties 


 We gratefully acknowledge several colleagues who have allowed us to
 interface, adapt or use parts of their codes:
   Stefan Grimme, W. Hujo, H. Kruse, P. Pracht,  : VdW corrections, initial TS optimization,
                  C. Bannwarth, S. Ehlert,         DFT functionals, gCP, sTDA/sTD-DF
                  L. Wittmann, M. Mueller
   Ed Valeev, F. Pavosevic, A. Kumar             : LibInt (2-el integral package), F12 methods
   Garnet Chan, S. Sharma, J. Yang, R. Olivares  : DMRG
   Ulf Ekstrom                                   : XCFun DFT Library
   Mihaly Kallay                                 : mrcc  (arbitrary order and MRCC methods)
   Frank Weinhold                                : gennbo (NPA and NBO analysis)
   Simon Mueller                                 : openCOSMO-RS
   Christopher J. Cramer and Donald G. Truhlar   : smd solvation model
   Lars Goerigk                                  : TD-DFT with DH, B97 family of functionals
   V. Asgeirsson, H. Jonsson                     : NEB implementation
   FAccTs GmbH                                   : IRC, NEB, NEB-TS, DLPNO-Multilevel, CI-OPT
                                                   MM, QMMM, 2- and 3-layer-ONIOM, Crystal-QMMM,
                                                   LR-CPCM, SF, NACMEs, symmetry and pop. for TD-DFT,
                                                   nearIR, NL-DFT gradient (VV10), updates on ESD,
                                                   ML-optimized integration grids, MBIS, APM,
                                                   GOAT, DOCKER, SOLVATOR, interface openCOSMO-RS
   S Lehtola, MJT Oliveira, MAL Marques          : LibXC Library
   Liviu Ungur et al                             : ANISO software


 Your calculation uses the libint2 library for the computation of 2-el integrals
 For citations please refer to: http://libint.valeyev.net

 Your ORCA version has been built with support for libXC version: 6.2.2
 For citations please refer to: https://libxc.gitlab.io

 This ORCA versions uses:
   CBLAS   interface :  Fast vector & matrix operations
   LAPACKE interface :  Fast linear algebra routines
   SCALAPACK package :  Parallel linear algebra routines
   Shared memory     :  Shared parallel matrices




***************************************
The coordinates will be read from file: Mol_C123C_OCCO2_OCCO3_CCCC1_UFF.xyz
***************************************


Your calculation utilizes the atom-pairwise dispersion correction
based on EEQ partial charges (D4)


================================================================================

----- Orbital basis set information -----
Your calculation utilizes the basis: 6-31+G(d,p)
   H-He, Li-Ne : W. J. Hehre, R. Ditchfield and J.A. Pople, J. Chem. Phys. 56, 2257 (1972).
                 Note: He and Ne are unpublished basis sets taken from the Gaussian program.
                 Note: Li and B from J. D. Dill and J. A. Pople, J. Chem. Phys. 62, 2921 (1975).
   Na - Ar     : M. M. Francl, W. J. Pietro, W. J. Hehre, J. S. Binkley, M. S. Gordon, 
                 D. J. DeFrees and J. A. Pople, J. Chem. Phys. 77, 3654 (1982).
   K - Zn      : V. A. Rassolov, J. A. Pople, M. A. Ratner, and T. L. Windus, J. Chem. Phys. 109, 1223 (1998).
   Additional Pol./Diff. from the 6-311G equivalent.

----- AuxJ basis set information -----
Your calculation utilizes the auxiliary basis: def2/J
   F. Weigend, Phys. Chem. Chem. Phys. 8, 1057 (2006).

================================================================================
                                        WARNINGS
                       Please study these warnings very carefully!
================================================================================


WARNING: Geometry Optimization
  ===> : Switching off AutoStart
         For restart on a previous wavefunction, please use MOREAD

================================================================================
                                       INPUT FILE
================================================================================
NAME = opt.com
|  1> ! B3LYP D4 6-31+G(d,p) def2/J RIJCOSX Opt Freq
|  2> 
|  3> * xyzfile 0 1 Mol_C123C_OCCO2_OCCO3_CCCC1_UFF.xyz
|  4> 
|  5> 
|  6>                          ****END OF INPUT****
================================================================================

                       *****************************
                       * Geometry Optimization Run *
                       *****************************

Geometry optimization settings:
Update method            Update   .... BFGS
Choice of coordinates    CoordSys .... (2022) Redundant Internals
Initial Hessian          InHess   .... Almloef's Model
Max. no of cycles        MaxIter  .... 90

Convergence Tolerances:
Energy Change            TolE     ....  5.0000e-06 Eh
Max. Gradient            TolMAXG  ....  3.0000e-04 Eh/bohr
RMS Gradient             TolRMSG  ....  1.0000e-04 Eh/bohr
Max. Displacement        TolMAXD  ....  4.0000e-03 bohr
RMS Displacement         TolRMSD  ....  2.0000e-03 bohr
Strict Convergence                .... False

------------------------------------------------------------------------------
                        ORCA OPTIMIZATION COORDINATE SETUP
------------------------------------------------------------------------------

The optimization will be done in redundant internal coordinates (2022)
Making redundant internal coordinates   ...  (2022 redundants) done
Evaluating the initial hessian          ...  (Almloef) done
Evaluating the coordinates              ...  done
Calculating the B-matrix                .... done
Calculating the G-matrix                .... done
Diagonalizing the G-matrix              .... done
The first mode is                       ....   84
The number of degrees of freedom        ....   84

    -----------------------------------------------------------------
                    Redundant Internal Coordinates


    -----------------------------------------------------------------
         Definition                    Initial Value    Approx d2E/dq
    -----------------------------------------------------------------
      1. B(C   1,C   0)                  1.5945         0.294789   
      2. B(O   2,C   1)                  1.4231         0.495480   
      3. B(C   3,O   2)                  1.4100         0.519944   
      4. B(C   4,C   3)                  1.5338         0.368399   
      5. B(O   5,C   4)                  1.4168         0.507084   
      6. B(O   5,C   0)                  1.4212         0.498927   
      7. B(O   6,C   1)                  1.4236         0.494660   
      8. B(C   7,O   6)                  1.4108         0.518481   
      9. B(C   8,C   7)                  1.5350         0.366724   
     10. B(O   9,C   8)                  1.4154         0.509661   
     11. B(O   9,C   0)                  1.4240         0.493925   
     12. B(C  10,C   1)                  1.5553         0.340439   
     13. B(C  11,C  10)                  1.5326         0.370053   
     14. B(C  12,C  11)                  1.5420         0.357514   
     15. B(C  13,C   0)                  1.5518         0.344864   
     16. B(C  13,C  12)                  1.5406         0.359291   
     17. B(H  14,C   3)                  1.1106         0.333840   
     18. B(H  15,C   3)                  1.1138         0.329939   
     19. B(H  16,C   4)                  1.1107         0.333755   
     20. B(H  17,C   4)                  1.1120         0.332096   
     21. B(H  18,C   7)                  1.1090         0.335820   
     22. B(H  19,C   7)                  1.1107         0.333769   
     23. B(H  20,C   8)                  1.1107         0.333677   
     24. B(H  21,C   8)                  1.1112         0.333117   
     25. B(H  22,C  10)                  1.1123         0.331836   
     26. B(H  23,C  10)                  1.1086         0.336344   
     27. B(H  24,C  11)                  1.1116         0.332628   
     28. B(H  25,C  11)                  1.1123         0.331733   
     29. B(H  26,C  12)                  1.1120         0.332184   
     30. B(H  27,C  12)                  1.1120         0.332182   
     31. B(H  28,C  13)                  1.1119         0.332287   
     32. B(H  29,C  13)                  1.1095         0.335154   
     33. A(O   5,C   0,O   9)          108.1065         0.395918   
     34. A(C   1,C   0,O   9)          111.2743         0.363718   
     35. A(O   9,C   0,C  13)          110.1172         0.373649   
     36. A(C   1,C   0,O   5)          109.1062         0.364345   
     37. A(O   5,C   0,C  13)          106.0647         0.374299   
     38. A(C   1,C   0,C  13)          111.9600         0.344367   
     39. A(O   2,C   1,C  10)          105.3945         0.373020   
     40. A(C   0,C   1,O   6)          112.4715         0.363811   
     41. A(C   0,C   1,C  10)          111.8007         0.343621   
     42. A(C   0,C   1,O   2)          110.2963         0.363914   
     43. A(O   6,C   1,C  10)          109.2839         0.372913   
     44. A(O   2,C   1,O   6)          107.2568         0.395540   
     45. A(C   1,O   2,C   3)          110.9324         0.399019   
     46. A(O   2,C   3,H  15)          111.1195         0.335585   
     47. A(C   4,C   3,H  14)          109.5539         0.319591   
     48. A(O   2,C   3,H  14)          108.8244         0.336242   
     49. A(H  14,C   3,H  15)          106.9285         0.283520   
     50. A(O   2,C   3,C   4)          109.7473         0.381311   
     51. A(C   4,C   3,H  15)          110.6020         0.318978   
     52. A(O   5,C   4,H  16)          107.7751         0.334831   
     53. A(C   3,C   4,H  16)          108.8520         0.319578   
     54. A(C   3,C   4,O   5)          112.0713         0.379659   
     55. A(H  16,C   4,H  17)          107.0724         0.283796   
     56. A(O   5,C   4,H  17)          110.3652         0.334553   
     57. A(C   3,C   4,H  17)          110.5257         0.319318   
     58. A(C   0,O   5,C   4)          111.6197         0.397750   
     59. A(C   1,O   6,C   7)          112.2027         0.398705   
     60. A(O   6,C   7,C   8)          111.6957         0.380823   
     61. A(H  18,C   7,H  19)          105.5945         0.284290   
     62. A(C   8,C   7,H  19)          108.8197         0.319342   
     63. A(O   6,C   7,H  19)          108.2232         0.336073   
     64. A(C   8,C   7,H  18)          110.5739         0.319662   
     65. A(O   6,C   7,H  18)          111.6824         0.336415   
     66. A(C   7,C   8,O   9)          114.1222         0.379692   
     67. A(H  20,C   8,H  21)          106.4771         0.283921   
     68. A(O   9,C   8,H  21)          109.8786         0.335006   
     69. A(C   7,C   8,H  21)          110.2497         0.319240   
     70. A(O   9,C   8,H  20)          107.3724         0.335100   
     71. A(C   7,C   8,H  20)          108.4079         0.319328   
     72. A(C   0,O   9,C   8)          113.6346         0.397401   
     73. A(H  22,C  10,H  23)          106.3533         0.284102   
     74. A(C  11,C  10,H  23)          108.2587         0.320216   
     75. A(C   1,C  10,H  23)          112.2084         0.315891   
     76. A(C  11,C  10,H  22)          109.1497         0.319511   
     77. A(C   1,C  10,H  22)          109.6108         0.315199   
     78. A(C   1,C  10,C  11)          111.1085         0.357069   
     79. A(H  24,C  11,H  25)          107.2467         0.283599   
     80. A(C  12,C  11,H  25)          109.4721         0.317703   
     81. A(C  10,C  11,H  25)          109.0213         0.319494   
     82. A(C  12,C  11,H  24)          109.4429         0.317842   
     83. A(C  10,C  11,H  24)          109.3651         0.319635   
     84. A(C  10,C  11,C  12)          112.1671         0.360055   
     85. A(C  13,C  12,H  27)          109.3308         0.318030   
     86. A(C  11,C  12,H  27)          108.8717         0.317773   
     87. A(C  13,C  12,H  26)          108.4969         0.318030   
     88. A(C  11,C  12,H  26)          109.3833         0.317773   
     89. A(C  11,C  12,C  13)          113.4993         0.358250   
     90. A(H  26,C  12,H  27)          107.0608         0.283600   
     91. A(C  12,C  13,H  29)          108.0682         0.318492   
     92. A(C   0,C  13,H  29)          110.8468         0.316373   
     93. A(C  12,C  13,H  28)          109.1595         0.318046   
     94. A(C   0,C  13,H  28)          109.6160         0.315931   
     95. A(C   0,C  13,C  12)          112.0906         0.356063   
     96. A(H  28,C  13,H  29)          106.9047         0.284006   
     97. D(O   2,C   1,C   0,C  13)   -133.2448         0.007277   
     98. D(O   6,C   1,C   0,O   5)   -135.8385         0.007277   
     99. D(O   2,C   1,C   0,O   9)    103.0466         0.007277   
    100. D(O   2,C   1,C   0,O   5)    -16.1516         0.007277   
    101. D(O   6,C   1,C   0,O   9)    -16.6402         0.007277   
    102. D(O   6,C   1,C   0,C  13)    107.0683         0.007277   
    103. D(C   3,O   2,C   1,C   0)    -46.6008         0.019398   
    104. D(C   3,O   2,C   1,O   6)     76.1934         0.019398   
    105. D(C   3,O   2,C   1,C  10)   -167.4333         0.019398   
    106. D(C   4,C   3,O   2,C   1)     66.1266         0.021433   
    107. D(H  14,C   3,O   2,C   1)   -174.0004         0.021433   
    108. D(H  15,C   3,O   2,C   1)    -56.5190         0.021433   
    109. D(O   5,C   4,C   3,H  15)    103.6396         0.010855   
    110. D(O   5,C   4,C   3,H  14)   -138.7390         0.010855   
    111. D(O   5,C   4,C   3,O   2)    -19.3119         0.010855   
    112. D(H  16,C   4,C   3,H  14)    -19.6254         0.010855   
    113. D(H  16,C   4,C   3,H  15)   -137.2468         0.010855   
    114. D(H  16,C   4,C   3,O   2)     99.8016         0.010855   
    115. D(C   0,O   5,C   4,H  17)     79.2961         0.020347   
    116. D(C   0,O   5,C   4,H  16)   -164.0977         0.020347   
    117. D(C   0,O   5,C   4,C   3)    -44.3524         0.020347   
    118. D(C   4,O   5,C   0,O   9)    -58.8813         0.019677   
    119. D(C   4,O   5,C   0,C   1)     62.2672         0.019677   
    120. D(C   4,O   5,C   0,C  13)   -176.9626         0.019677   
    121. D(C   7,O   6,C   1,O   2)   -162.1592         0.019332   
    122. D(C   7,O   6,C   1,C   0)    -40.7222         0.019332   
    123. D(C   7,O   6,C   1,C  10)     84.0633         0.019332   
    124. D(H  19,C   7,O   6,C   1)   -178.8272         0.021308   
    125. D(H  18,C   7,O   6,C   1)    -63.0119         0.021308   
    126. D(C   8,C   7,O   6,C   1)     61.4036         0.021308   
    127. D(O   9,C   8,C   7,O   6)    -22.2864         0.010763   
    128. D(H  20,C   8,C   7,H  19)    -22.1118         0.010763   
    129. D(H  20,C   8,C   7,H  18)   -137.6609         0.010763   
    130. D(H  20,C   8,C   7,O   6)     97.3055         0.010763   
    131. D(O   9,C   8,C   7,H  19)   -141.7037         0.010763   
    132. D(O   9,C   8,C   7,H  18)    102.7472         0.010763   
    133. D(C   0,O   9,C   8,H  21)     88.2469         0.020562   
    134. D(C   0,O   9,C   8,H  20)   -156.3403         0.020562   
    135. D(C   0,O   9,C   8,C   7)    -36.1667         0.020562   
    136. D(C   8,O   9,C   0,C  13)    -69.3973         0.019273   
    137. D(C   8,O   9,C   0,O   5)    175.1464         0.019273   
    138. D(C   8,O   9,C   0,C   1)     55.3532         0.019273   
    139. D(H  22,C  10,C   1,O   6)     72.4295         0.009382   
    140. D(H  22,C  10,C   1,O   2)    -42.5518         0.009382   
    141. D(H  22,C  10,C   1,C   0)   -162.3951         0.009382   
    142. D(C  11,C  10,C   1,O   6)   -166.8515         0.009382   
    143. D(C  11,C  10,C   1,O   2)     78.1672         0.009382   
    144. D(C  11,C  10,C   1,C   0)    -41.6761         0.009382   
    145. D(H  24,C  11,C  10,H  23)     60.7019         0.010947   
    146. D(H  24,C  11,C  10,H  22)    -54.6654         0.010947   
    147. D(H  24,C  11,C  10,C   1)   -175.6560         0.010947   
    148. D(C  12,C  11,C  10,H  23)    -60.9116         0.010947   
    149. D(C  12,C  11,C  10,H  22)   -176.2789         0.010947   
    150. D(C  12,C  11,C  10,C   1)     62.7305         0.010947   
    151. D(H  26,C  12,C  11,H  25)   -138.4986         0.010265   
    152. D(H  26,C  12,C  11,H  24)    -21.2212         0.010265   
    153. D(H  26,C  12,C  11,C  10)    100.3477         0.010265   
    154. D(C  13,C  12,C  11,H  25)    100.1889         0.010265   
    155. D(C  13,C  12,C  11,H  24)   -142.5337         0.010265   
    156. D(C  13,C  12,C  11,C  10)    -20.9647         0.010265   
    157. D(C  12,C  13,C   0,O   9)   -178.0853         0.009606   
    158. D(C  12,C  13,C   0,O   5)    -61.3477         0.009606   
    159. D(C  12,C  13,C   0,C   1)     57.5588         0.009606   
    160. D(H  28,C  13,C  12,H  27)    -37.7843         0.010359   
    161. D(H  28,C  13,C  12,C  11)   -159.5401         0.010359   
    162. D(C   0,C  13,C  12,H  27)     83.8552         0.010359   
    163. D(C   0,C  13,C  12,H  26)   -159.7084         0.010359   
    164. D(C   0,C  13,C  12,C  11)    -37.9006         0.010359   
    165. D(H  28,C  13,C   0,O   9)    -56.7079         0.009606   
    166. D(H  28,C  13,C  12,H  26)     78.6521         0.010359   
    167. D(H  28,C  13,C   0,O   5)     60.0298         0.009606   
    168. D(H  28,C  13,C   0,C   1)    178.9363         0.009606   
    -----------------------------------------------------------------

Number of atoms                         .... 30
Number of degrees of freedom            .... 168


         *************************************************************
         *                GEOMETRY OPTIMIZATION CYCLE   1            *
         *************************************************************
---------------------------------
CARTESIAN COORDINATES (ANGSTROEM)
---------------------------------
  C     -0.124586    0.206527    0.705092
  C     -0.282945   -0.009507   -0.866723
  O     -0.618060    1.218791   -1.502544
  C     -1.649460    1.881565   -0.806080
  C     -1.145344    2.316606    0.575637
  O      0.008145    1.596028    0.972650
  O     -1.307821   -0.944194   -1.186971
  C     -1.311260   -2.051768   -0.313158
  C     -1.571435   -1.628016    1.139111
  O     -1.265171   -0.272917    1.410018
  C      1.050943   -0.464442   -1.524510
  C      2.241447    0.313669   -0.953512
  C      2.431970    0.060678    0.555575
  C      1.163059   -0.461748    1.255877
  H     -1.957510    2.775998   -1.387934
  H     -2.549295    1.232456   -0.708460
  H     -0.875756    3.393367    0.536645
  H     -1.949716    2.208771    1.335890
  H     -0.370540   -2.634475   -0.386533
  H     -2.117608   -2.744871   -0.634090
  H     -2.650199   -1.774658    1.359379
  H     -1.014445   -2.288301    1.838078
  H      1.000551   -0.299634   -2.623328
  H      1.241783   -1.546820   -1.379657
  H      3.166538    0.023160   -1.497084
  H      2.082622    1.400343   -1.130156
  H      3.247886   -0.679771    0.705519
  H      2.756993    1.006986    1.040685
  H      1.244478   -0.271273    2.348292
  H      1.124740   -1.562552    1.122289

----------------------------
CARTESIAN COORDINATES (A.U.)
----------------------------
  NO LB      ZA    FRAG     MASS         X           Y           Z
   0 C     6.0000    0    12.011   -0.235433    0.390279    1.332431
   1 C     6.0000    0    12.011   -0.534689   -0.017966   -1.637869
   2 O     8.0000    0    15.999   -1.167964    2.303181   -2.839397
   3 C     6.0000    0    12.011   -3.117028    3.555643   -1.523270
   4 C     6.0000    0    12.011   -2.164386    4.377751    1.087796
   5 O     8.0000    0    15.999    0.015392    3.016056    1.838042
   6 O     8.0000    0    15.999   -2.471424   -1.784268   -2.243050
   7 C     6.0000    0    12.011   -2.477922   -3.877280   -0.591783
   8 C     6.0000    0    12.011   -2.969582   -3.076504    2.152608
   9 O     8.0000    0    15.999   -2.390827   -0.515738    2.664548
  10 C     6.0000    0    12.011    1.985994   -0.877668   -2.880906
  11 C     6.0000    0    12.011    4.235721    0.592749   -1.801877
  12 C     6.0000    0    12.011    4.595757    0.114665    1.049885
  13 C     6.0000    0    12.011    2.197863   -0.872577    2.373264
  14 H     1.0000    0     1.008   -3.699158    5.245876   -2.622815
  15 H     1.0000    0     1.008   -4.817469    2.329004   -1.338795
  16 H     1.0000    0     1.008   -1.654939    6.412534    1.014112
  17 H     1.0000    0     1.008   -3.684429    4.173972    2.524466
  18 H     1.0000    0     1.008   -0.700219   -4.978436   -0.730442
  19 H     1.0000    0     1.008   -4.001699   -5.187054   -1.198256
  20 H     1.0000    0     1.008   -5.008150   -3.353618    2.568854
  21 H     1.0000    0     1.008   -1.917023   -4.324262    3.473464
  22 H     1.0000    0     1.008    1.890767   -0.566226   -4.957371
  23 H     1.0000    0     1.008    2.346630   -2.923066   -2.607174
  24 H     1.0000    0     1.008    5.983890    0.043766   -2.829079
  25 H     1.0000    0     1.008    3.935585    2.646265   -2.135685
  26 H     1.0000    0     1.008    6.137615   -1.284581    1.333238
  27 H     1.0000    0     1.008    5.209962    1.902928    1.966610
  28 H     1.0000    0     1.008    2.351723   -0.512632    4.437629
  29 H     1.0000    0     1.008    2.125451   -2.952795    2.120819

--------------------------------
INTERNAL COORDINATES (ANGSTROEM)
--------------------------------
 C      0   0   0     0.000000000000     0.00000000     0.00000000
 C      1   0   0     1.594475040966     0.00000000     0.00000000
 O      2   1   0     1.423125568624   110.29629533     0.00000000
 C      3   2   1     1.410006183806   110.93237210   313.39923058
 C      4   3   2     1.533797731523   109.74730764    66.12656884
 O      5   4   3     1.416823506783   112.07126684   340.68808020
 O      2   1   3     1.423576265905   112.47149320   240.31313268
 C      7   2   1     1.410773245836   112.20273271   319.27782622
 C      8   7   2     1.535038122162   111.69571259    61.40363116
 O      9   8   7     1.415443937479   114.12222430   337.71360833
 C      2   1   3     1.555283507319   111.80067730   116.92140632
 C     11   2   1     1.532577964849   111.10845258   318.32393011
 C     12  11   2     1.541962072549   112.16712103    62.73054800
 C     13  12  11     1.540612521889   113.49932221   339.03525133
 H      4   3   2     1.110612115594   108.82438794   185.99964490
 H      4   3   2     1.113811108540   111.11947863   303.48104832
 H      5   4   3     1.110681014931   108.85201964    99.80161855
 H      5   4   3     1.112037465924   110.52572119   217.12966793
 H      8   7   2     1.109002009409   111.68236446   296.98808087
 H      8   7   2     1.110669264154   108.22321141   181.17279387
 H      9   8   7     1.110744631175   108.40790481    97.30553485
 H      9   8   7     1.111201605657   110.24969686   213.49860183
 H     11   2   1     1.112250883413   109.61082580   197.60492330
 H     11   2   1     1.108577661733   112.20837181    79.68018568
 H     12  11   2     1.111602157494   109.36514686   184.34402155
 H     12  11   2     1.112334871177   109.02128638   301.31790344
 H     13  12  11     1.111965306920   109.38334963   100.34774448
 H     13  12  11     1.111966948022   108.87166906   217.02381896
 H     14  13  12     1.111881428665   109.15949985   200.45985618
 H     14  13  12     1.109542043332   108.06818679    84.53786428

---------------------------
INTERNAL COORDINATES (A.U.)
---------------------------
 C      0   0   0     0.000000000000     0.00000000     0.00000000
 C      1   0   0     3.013121154798     0.00000000     0.00000000
 O      2   1   0     2.689317578879   110.29629533     0.00000000
 C      3   2   1     2.664525534529   110.93237210   313.39923058
 C      4   3   2     2.898457657409   109.74730764    66.12656884
 O      5   4   3     2.677408407923   112.07126684   340.68808020
 O      2   1   3     2.690169273311   112.47149320   240.31313268
 C      7   2   1     2.665975071693   112.20273271   319.27782622
 C      8   7   2     2.900801656015   111.69571259    61.40363116
 O      9   8   7     2.674801399754   114.12222430   337.71360833
 C      2   1   3     2.939059889437   111.80067730   116.92140632
 C     11   2   1     2.896152632447   111.10845258   318.32393011
 C     12  11   2     2.913886026011   112.16712103    62.73054800
 C     13  12  11     2.911335744860   113.49932221   339.03525133
 H      4   3   2     2.098752739488   108.82438794   185.99964490
 H      4   3   2     2.104797960059   111.11947863   303.48104832
 H      5   4   3     2.098882940366   108.85201964    99.80161855
 H      5   4   3     2.101446261256   110.52572119   217.12966793
 H      8   7   2     2.095710079752   111.68236446   296.98808087
 H      8   7   2     2.098860734615   108.22321141   181.17279387
 H      9   8   7     2.099003157644   108.40790481    97.30553485
 H      9   8   7     2.099866714265   110.24969686   213.49860183
 H     11   2   1     2.101849561862   109.61082580   197.60492330
 H     11   2   1     2.094908178858   112.20837181    79.68018568
 H     12  11   2     2.100623647540   109.36514686   184.34402155
 H     12  11   2     2.102008275736   109.02128638   301.31790344
 H     13  12  11     2.101309900500   109.38334963   100.34774448
 H     13  12  11     2.101313001734   108.87166906   217.02381896
 H     14  13  12     2.101151393571   109.15949985   200.45985618
 H     14  13  12     2.096730595969   108.06818679    84.53786428

---------------------
BASIS SET INFORMATION
---------------------
There are 3 groups of distinct atoms

 Group   1 Type C   : 11s5p1d contracted to 4s3p1d pattern {6311/311/1}
 Group   2 Type O   : 11s5p1d contracted to 4s3p1d pattern {6311/311/1}
 Group   3 Type H   : 4s1p contracted to 2s1p pattern {31/1}

Atom   0C    basis set group =>   1
Atom   1C    basis set group =>   1
Atom   2O    basis set group =>   2
Atom   3C    basis set group =>   1
Atom   4C    basis set group =>   1
Atom   5O    basis set group =>   2
Atom   6O    basis set group =>   2
Atom   7C    basis set group =>   1
Atom   8C    basis set group =>   1
Atom   9O    basis set group =>   2
Atom  10C    basis set group =>   1
Atom  11C    basis set group =>   1
Atom  12C    basis set group =>   1
Atom  13C    basis set group =>   1
Atom  14H    basis set group =>   3
Atom  15H    basis set group =>   3
Atom  16H    basis set group =>   3
Atom  17H    basis set group =>   3
Atom  18H    basis set group =>   3
Atom  19H    basis set group =>   3
Atom  20H    basis set group =>   3
Atom  21H    basis set group =>   3
Atom  22H    basis set group =>   3
Atom  23H    basis set group =>   3
Atom  24H    basis set group =>   3
Atom  25H    basis set group =>   3
Atom  26H    basis set group =>   3
Atom  27H    basis set group =>   3
Atom  28H    basis set group =>   3
Atom  29H    basis set group =>   3
---------------------------------
AUXILIARY/J BASIS SET INFORMATION
---------------------------------
There are 3 groups of distinct atoms

 Group   1 Type C   : 12s5p4d2f1g contracted to 6s4p3d1f1g pattern {711111/2111/211/2/1}
 Group   2 Type O   : 12s5p4d2f1g contracted to 6s4p3d1f1g pattern {711111/2111/211/2/1}
 Group   3 Type H   : 5s2p1d contracted to 3s1p1d pattern {311/2/1}

Atom   0C    basis set group =>   1
Atom   1C    basis set group =>   1
Atom   2O    basis set group =>   2
Atom   3C    basis set group =>   1
Atom   4C    basis set group =>   1
Atom   5O    basis set group =>   2
Atom   6O    basis set group =>   2
Atom   7C    basis set group =>   1
Atom   8C    basis set group =>   1
Atom   9O    basis set group =>   2
Atom  10C    basis set group =>   1
Atom  11C    basis set group =>   1
Atom  12C    basis set group =>   1
Atom  13C    basis set group =>   1
Atom  14H    basis set group =>   3
Atom  15H    basis set group =>   3
Atom  16H    basis set group =>   3
Atom  17H    basis set group =>   3
Atom  18H    basis set group =>   3
Atom  19H    basis set group =>   3
Atom  20H    basis set group =>   3
Atom  21H    basis set group =>   3
Atom  22H    basis set group =>   3
Atom  23H    basis set group =>   3
Atom  24H    basis set group =>   3
Atom  25H    basis set group =>   3
Atom  26H    basis set group =>   3
Atom  27H    basis set group =>   3
Atom  28H    basis set group =>   3
Atom  29H    basis set group =>   3
------------------------------------------------------------------------------
                             ORCA STARTUP CALCULATIONS
                           -- RI-GTO INTEGRALS CHOSEN --
------------------------------------------------------------------------------
------------------------------------------------------------------------------
                   ___                                                        
                  /   \      - P O W E R E D   B Y -                         
                 /     \                                                     
                 |  |  |   _    _      __       _____    __    __             
                 |  |  |  | |  | |    /  \     |  _  \  |  |  /  |          
                  \  \/   | |  | |   /    \    | | | |  |  | /  /          
                 / \  \   | |__| |  /  /\  \   | |_| |  |  |/  /          
                |  |  |   |  __  | /  /__\  \  |    /   |      \           
                |  |  |   | |  | | |   __   |  |    \   |  |\   \          
                \     /   | |  | | |  |  |  |  | |\  \  |  | \   \       
                 \___/    |_|  |_| |__|  |__|  |_| \__\ |__|  \__/        
                                                                              
                      - O R C A' S   B I G   F R I E N D -                    
                                      &                                       
                       - I N T E G R A L  F E E D E R -                       
                                                                              
 v1 FN, 2020, v2 2021, v3 2022-2024                                           
------------------------------------------------------------------------------


----------------------
SHARK INTEGRAL PACKAGE
----------------------

Number of atoms                             ...     30
Number of basis functions                   ...    332
Number of shells                            ...    160
Maximum angular momentum                    ...      2
Integral batch strategy                     ... SHARK/LIBINT Hybrid
RI-J (if used) integral strategy            ... SPLIT-RIJ (Revised 2003 algorithm where possible)
Printlevel                                  ...      1
Contraction scheme used                     ... SEGMENTED contraction
Prescreening option                         ... SCHWARTZ
   Thresh                                   ... 2.500e-11
   Tcut                                     ... 2.500e-12
   Tpresel                                  ... 2.500e-12 
Coulomb Range Separation                    ... NOT USED
Exchange Range Separation                   ... NOT USED
Multipole approximations                    ... NOT USED
Finite Nucleus Model                        ... NOT USED
CABS basis                                  ... NOT available
Auxiliary Coulomb fitting basis             ... AVAILABLE
   # of basis functions in Aux-J            ...    862
   # of shells in Aux-J                     ...    290
   Maximum angular momentum in Aux-J        ...      4
Auxiliary J/K fitting basis                 ... NOT available
Auxiliary Correlation fitting basis         ... NOT available
Auxiliary 'external' fitting basis          ... NOT available

Checking pre-screening integrals            ... done (  0.0 sec) Dimension = 160
Check shell pair data                       ... done (  0.0 sec)
Shell pair information
Shell pair cut-off parameter TPreSel        ...   2.5e-12
Total number of shell pairs                 ...     12880
Shell pairs after pre-screening             ...     11827
Total number of primitive shell pairs       ...     51063
Primitive shell pairs kept                  ...     32051
          la=0 lb=0:   3588 shell pairs
          la=1 lb=0:   4688 shell pairs
          la=1 lb=1:   1572 shell pairs
          la=2 lb=0:   1130 shell pairs
          la=2 lb=1:    744 shell pairs
          la=2 lb=2:    105 shell pairs

Calculating one electron integrals          ... done (  0.0 sec)
Calculating RI/J V-Matrix + Cholesky decomp.... done (  0.0 sec)
Calculating Nuclear repulsion               ... done (  0.0 sec) ENN=   1082.080958906841 Eh

Diagonalization of the overlap matrix:
Smallest eigenvalue                        ... 3.058e-06
Time for diagonalization                   ...    0.008 sec
Threshold for overlap eigenvalues          ... 1.000e-07
Number of eigenvalues below threshold      ... 0
Time for construction of square roots      ...    0.001 sec
Total time needed                          ...    0.010 sec

-------------------
DFT GRID GENERATION
-------------------

General Integration Accuracy     IntAcc      ... 4.388
Radial Grid Type                 RadialGrid  ... OptM3 with GC (2021)
Angular Grid (max. ang.)         AngularGrid ... 4 (Lebedev-302)
Angular grid pruning method      GridPruning ... 4 (adaptive)
Weight generation scheme         WeightScheme... mBecke (2022)
Basis function cutoff            BFCut       ... 1.0000e-11
Integration weight cutoff        WCut        ... 1.0000e-14
Partially contracted basis set               ... off
Rotationally invariant grid construction     ... off
Angular grids for H and He will be reduced by one unit
Diffuse basis detected: some atoms will have their outermost
                        angular grid increased by 1.

Total number of grid points                  ...   137168
Total number of batches                      ...     2159
Average number of points per batch           ...       63
Average number of grid points per atom       ...     4572

--------------------
COSX GRID GENERATION
--------------------

GRIDX 1
-------
General Integration Accuracy     IntAcc      ... 3.816
Radial Grid Type                 RadialGrid  ... OptM3 with GC (2021)
Angular Grid (max. ang.)         AngularGrid ... 1 (Lebedev-50)
Angular grid pruning method      GridPruning ... 4 (adaptive)
Weight generation scheme         WeightScheme... mBecke (2022)
Basis function cutoff            BFCut       ... 1.0000e-11
Integration weight cutoff        WCut        ... 1.0000e-14
Partially contracted basis set               ... on
Rotationally invariant grid construction     ... off
Angular grids for H and He will be reduced by one unit
Diffuse basis detected: some atoms will have their outermost
                        angular grid increased by 1.

Total number of grid points                  ...    17479
Total number of batches                      ...      157
Average number of points per batch           ...      111
Average number of grid points per atom       ...      583
UseSFitting                                  ... on

GRIDX 2
-------
General Integration Accuracy     IntAcc      ... 4.020
Radial Grid Type                 RadialGrid  ... OptM3 with GC (2021)
Angular Grid (max. ang.)         AngularGrid ... 2 (Lebedev-110)
Angular grid pruning method      GridPruning ... 4 (adaptive)
Weight generation scheme         WeightScheme... mBecke (2022)
Basis function cutoff            BFCut       ... 1.0000e-11
Integration weight cutoff        WCut        ... 1.0000e-14
Partially contracted basis set               ... on
Rotationally invariant grid construction     ... off
Angular grids for H and He will be reduced by one unit
Diffuse basis detected: some atoms will have their outermost
                        angular grid increased by 1.

Total number of grid points                  ...    39448
Total number of batches                      ...      322
Average number of points per batch           ...      122
Average number of grid points per atom       ...     1315
UseSFitting                                  ... on

GRIDX 3
-------
General Integration Accuracy     IntAcc      ... 4.338
Radial Grid Type                 RadialGrid  ... OptM3 with GC (2021)
Angular Grid (max. ang.)         AngularGrid ... 3 (Lebedev-194)
Angular grid pruning method      GridPruning ... 4 (adaptive)
Weight generation scheme         WeightScheme... mBecke (2022)
Basis function cutoff            BFCut       ... 1.0000e-11
Integration weight cutoff        WCut        ... 1.0000e-14
Partially contracted basis set               ... on
Rotationally invariant grid construction     ... off
Angular grids for H and He will be reduced by one unit
Diffuse basis detected: some atoms will have their outermost
                        angular grid increased by 1.

Total number of grid points                  ...    85146
Total number of batches                      ...      681
Average number of points per batch           ...      125
Average number of grid points per atom       ...     2838
UseSFitting                                  ... on
Initializing property integral containers    ... done (  0.0 sec)

SHARK setup successfully completed in   2.4 seconds

Maximum memory used throughout the entire STARTUP-calculation: 64.2 MB
-------------------------------------------------------------------------------
                                 ORCA GUESS
                   Start orbitals & Density for SCF / CASSCF
-------------------------------------------------------------------------------

------------
SCF SETTINGS
------------
Hamiltonian:
 Density Functional     Method          .... DFT(GTOs)
 Exchange Functional    Exchange        .... B88
   X-Alpha parameter    XAlpha          ....  0.666667
   Becke's b parameter  XBeta           ....  0.004200
 Correlation Functional Correlation     .... LYP
 LDA part of GGA corr.  LDAOpt          .... VWN-5
 Gradients option       PostSCFGGA      .... off
 Hybrid DFT is turned on
   Fraction HF Exchange ScalHFX         ....  0.200000
   Scaling of DF-GGA-X  ScalDFX         ....  0.720000
   Scaling of DF-GGA-C  ScalDFC         ....  0.810000
   Scaling of DF-LDA-C  ScalLDAC        ....  1.000000
   Perturbative correction              ....  0.000000
   NL short-range parameter             ....  4.800000
 RI-approximation to the Coulomb term is turned on
   Number of AuxJ basis functions       .... 862
   RIJ-COSX (HFX calculated with COS-X)).... on


General Settings:
 Integral files         IntName         .... opt
 Hartree-Fock type      HFTyp           .... RHF
 Total Charge           Charge          ....    0
 Multiplicity           Mult            ....    1
 Number of Electrons    NEL             ....  108
 Basis Dimension        Dim             ....  332
 Nuclear Repulsion      ENuc            ....   1082.0809589068 Eh

Convergence Acceleration:
 AO-DIIS                CNVDIIS         .... on
   Start iteration      DIISMaxIt       ....    12
   Startup error        DIISStart       ....  0.200000
   # of expansion vecs  DIISMaxEq       ....     5
   Bias factor          DIISBfac        ....   1.050
   Max. coefficient     DIISMaxC        ....  10.000
 MO-DIIS                CNVKDIIS        .... off
 Trust-Rad. Augm. Hess. CNVTRAH         .... auto
   Auto Start mean grad. ratio tolernc. ....  1.125000
   Auto Start start iteration           ....    50
   Auto Start num. interpolation iter.  ....    10
   Max. Number of Micro iterations      ....    24
   Max. Number of Macro iterations      .... Maxiter - #DIIS iter
   Number of Davidson start vectors     ....     2
   Converg. threshold    (grad. norm)   ....   1.000e-05
   Grad. Scal. Fac. for Micro threshold ....   0.100
   Minimum threshold for Micro iter.    ....   1.000e-02
   NR start threshold (gradient norm)   ....   1.000e-04
   Initial trust radius                 ....   0.400
   Minimum AH scaling param. (alpha)    ....   1.000
   Maximum AH scaling param. (alpha)    .... 1000.000
   Quad. conv. algorithm                .... NR
   White noise on init. David. guess    .... on
   Maximum white noise                  ....   0.010
   Pseudo random numbers                .... off
   Inactive MOs                         .... canonical
   Orbital update algorithm             .... Taylor
   Preconditioner                       .... Diag
   Full preconditioner red. dimension   ....   250
 SOSCF                  CNVSOSCF        .... on
   Start iteration      SOSCFMaxIt      ....   150
   Startup grad/error   SOSCFStart      ....  0.003300
   Hessian update       SOSCFHessUp     .... L-BFGS
 Level Shifting         CNVShift        .... on
   Level shift para.    LevelShift      ....    0.2500
   Turn off err/grad.   ShiftErr        ....    0.0010
 Zerner damping         CNVZerner       .... off
 Static damping         CNVDamp         .... on
   Fraction old density DampFac         ....    0.7000
   Max. Damping (<1)    DampMax         ....    0.9800
   Min. Damping (>=0)   DampMin         ....    0.0000
   Turn off err/grad.   DampErr         ....    0.1000

SCF Procedure:
 Maximum # iterations   MaxIter         ....   125
 SCF integral mode      SCFMode         .... Direct
   Integral package                     .... SHARK and LIBINT hybrid scheme
 Reset frequency        DirectResetFreq ....    20
 Integral Threshold     Thresh          ....  2.500e-11 Eh
 Primitive CutOff       TCut            ....  2.500e-12 Eh

Convergence Tolerance:
 Convergence Check Mode ConvCheckMode   .... Total+1el-Energy
 Convergence forced     ConvForced      .... 0
 Energy Change          TolE            ....  1.000e-08 Eh
 1-El. energy change                    ....  1.000e-05 Eh
 Orbital Gradient       TolG            ....  1.000e-05
 Orbital Rotation angle TolX            ....  1.000e-05
 DIIS Error             TolErr          ....  5.000e-07

------------------------------
INITIAL GUESS: MODEL POTENTIAL
------------------------------
Loading Hartree-Fock densities                     ... done
Calculating cut-offs                               ... done
Initializing the effective Hamiltonian             ... done
Setting up the integral package (SHARK)            ... done
Starting the Coulomb interaction                   ... done (   0.4 sec)
Making the grid                                    ... done (   0.3 sec)
Mapping shells                                     ... done
Starting the XC term evaluation                    ... done (   0.5 sec)
  promolecular density results
     # of electrons  =    108.000864557
     EX              =    -88.993588023
     EC              =     -3.703033594
     EX+EC           =    -92.696621617
Transforming the Hamiltonian                       ... done (   0.0 sec)
Diagonalizing the Hamiltonian                      ... done (   0.0 sec)
Back transforming the eigenvectors                 ... done (   0.0 sec)
Now organizing SCF variables                       ... done
                      ------------------
                      INITIAL GUESS DONE (   1.2 sec)
                      ------------------
             **** ENERGY FILE WAS UPDATED (opt.en.tmp) ****
Finished Guess after   1.2 sec
Maximum memory used throughout the entire GUESS-calculation: 36.7 MB

-------------------------------------------------------------------------------------------
                                      ORCA LEAN-SCF
                              memory conserving SCF solver
-------------------------------------------------------------------------------------------

----------------------------------------D-I-I-S--------------------------------------------
Iteration    Energy (Eh)           Delta-E    RMSDP     MaxDP     DIISErr   Damp  Time(sec)
-------------------------------------------------------------------------------------------
               ***  Starting incremental Fock matrix formation  ***
    1    -690.8497433829186321     0.00e+00  1.06e-02  1.52e+00  1.76e-01  0.700  19.0
    2    -691.0016576877642365    -1.52e-01  8.55e-03  1.18e+00  7.71e-02  0.700   7.8
                               ***Turning on AO-DIIS***
    3    -691.0613713393888702    -5.97e-02  2.64e-03  2.18e-01  2.91e-02  0.700   7.3
    4    -691.0973823989540961    -3.60e-02  6.36e-03  7.61e-01  1.42e-02  0.000   7.1
    5    -691.1767319321372725    -7.93e-02  3.00e-03  4.46e-01  3.58e-03  0.000   7.4
                              *** Initializing SOSCF ***
---------------------------------------S-O-S-C-F--------------------------------------
Iteration    Energy (Eh)           Delta-E    RMSDP     MaxDP     MaxGrad    Time(sec)
--------------------------------------------------------------------------------------
    6    -691.1770148982921000    -2.83e-04  9.89e-04  1.43e-01  1.22e-03     7.2
               *** Restarting incremental Fock matrix formation ***
    7    -691.1770965425296254    -8.16e-05  6.77e-04  9.71e-02  1.35e-04    15.6
    8    -691.1770947412076112     1.80e-06  5.55e-05  3.01e-03  2.08e-04    11.8
    9    -691.1771005482464716    -5.81e-06  2.71e-04  4.03e-02  1.97e-05    10.5
   10    -691.1771005346529364     1.36e-08  8.50e-05  1.29e-02  2.40e-05     9.8
   11    -691.1771006578096603    -1.23e-07  4.61e-04  6.09e-02  3.24e-06    16.2
   12    -691.1771006726328324    -1.48e-08  2.25e-04  2.64e-02  3.48e-06    11.6
   13    -691.1771006823141761    -9.68e-09  1.45e-04  1.33e-02  1.06e-06     9.5
                 **** Energy Check signals convergence ****

               *****************************************************
               *                     SUCCESS                       *
               *           SCF CONVERGED AFTER  13 CYCLES          *
               *****************************************************

Recomputing exchange energy using gridx3       ... done (   29.061 sec)
Old exchange energy                            :    -18.091555941 Eh
New exchange energy                            :    -18.091565202 Eh
Exchange energy change after final integration :     -0.000009260 Eh
Total energy after final integration           :   -691.177109943 Eh
             **** ENERGY FILE WAS UPDATED (opt.en.tmp) ****

----------------
TOTAL SCF ENERGY
----------------

Total Energy       :       -691.17710994270362 Eh          -18807.88534 eV

Components:
Nuclear Repulsion  :       1082.08095890684058 Eh           29444.91984 eV
Electronic Energy  :      -1773.25805958915475 Eh          -48252.80493 eV
One Electron Energy:      -3091.77931502414640 Eh          -84131.59233 eV
Two Electron Energy:       1318.52125543499164 Eh           35878.78740 eV

Virial components:
Potential Energy   :      -1377.82490885998664 Eh          -37492.52185 eV
Kinetic Energy     :        686.64779891728301 Eh           18684.63652 eV
Virial Ratio       :          2.00659626526519

DFT components:
N(Alpha)           :       53.999885080034 electrons
N(Beta)            :       53.999885080034 electrons
N(Total)           :      107.999770160069 electrons
E(X)               :      -71.853233190923 Eh       
E(C)               :       -4.342886947473 Eh       
E(XC)              :      -76.196120138397 Eh       

---------------
SCF CONVERGENCE
---------------

  Last Energy change         ...    9.6813e-09  Tolerance :   1.0000e-08
  Last MAX-Density change    ...    1.3327e-02  Tolerance :   1.0000e-07
  Last RMS-Density change    ...    1.4506e-04  Tolerance :   5.0000e-09
  Last DIIS Error            ...    1.2219e-03  Tolerance :   5.0000e-07
  Last Orbital Gradient      ...    1.0570e-06  Tolerance :   1.0000e-05
  Last Orbital Rotation      ...    1.9864e-06  Tolerance :   1.0000e-05


----------------
ORBITAL ENERGIES
----------------

  NO   OCC          E(Eh)            E(eV) 
   0   2.0000     -19.164648      -521.4966 
   1   2.0000     -19.164580      -521.4947 
   2   2.0000     -19.164332      -521.4880 
   3   2.0000     -19.161759      -521.4180 
   4   2.0000     -10.298323      -280.2316 
   5   2.0000     -10.294759      -280.1346 
   6   2.0000     -10.244679      -278.7719 
   7   2.0000     -10.242848      -278.7221 
   8   2.0000     -10.229108      -278.3482 
   9   2.0000     -10.228769      -278.3390 
  10   2.0000     -10.187820      -277.2247 
  11   2.0000     -10.182539      -277.0810 
  12   2.0000     -10.179598      -277.0009 
  13   2.0000     -10.176253      -276.9099 
  14   2.0000      -1.101954       -29.9857 
  15   2.0000      -1.060451       -28.8563 
  16   2.0000      -1.040831       -28.3225 
  17   2.0000      -1.006778       -27.3958 
  18   2.0000      -0.826400       -22.4875 
  19   2.0000      -0.771238       -20.9865 
  20   2.0000      -0.745741       -20.2926 
  21   2.0000      -0.738914       -20.1069 
  22   2.0000      -0.689278       -18.7562 
  23   2.0000      -0.669266       -18.2117 
  24   2.0000      -0.625187       -17.0122 
  25   2.0000      -0.621416       -16.9096 
  26   2.0000      -0.567741       -15.4490 
  27   2.0000      -0.546007       -14.8576 
  28   2.0000      -0.541132       -14.7249 
  29   2.0000      -0.513517       -13.9735 
  30   2.0000      -0.504829       -13.7371 
  31   2.0000      -0.479745       -13.0545 
  32   2.0000      -0.466440       -12.6925 
  33   2.0000      -0.462962       -12.5978 
  34   2.0000      -0.458857       -12.4861 
  35   2.0000      -0.449147       -12.2219 
  36   2.0000      -0.445175       -12.1138 
  37   2.0000      -0.421085       -11.4583 
  38   2.0000      -0.405496       -11.0341 
  39   2.0000      -0.401654       -10.9296 
  40   2.0000      -0.386708       -10.5229 
  41   2.0000      -0.379742       -10.3333 
  42   2.0000      -0.373319       -10.1585 
  43   2.0000      -0.358961        -9.7678 
  44   2.0000      -0.345394        -9.3987 
  45   2.0000      -0.342141        -9.3101 
  46   2.0000      -0.338760        -9.2181 
  47   2.0000      -0.334601        -9.1049 
  48   2.0000      -0.321319        -8.7435 
  49   2.0000      -0.312858        -8.5133 
  50   2.0000      -0.284544        -7.7428 
  51   2.0000      -0.278223        -7.5708 
  52   2.0000      -0.266863        -7.2617 
  53   2.0000      -0.243569        -6.6278 
  54   0.0000      -0.001071        -0.0292 
  55   0.0000       0.010107         0.2750 
  56   0.0000       0.014763         0.4017 
  57   0.0000       0.023000         0.6259 
  58   0.0000       0.029979         0.8158 
  59   0.0000       0.033566         0.9134 
  60   0.0000       0.038232         1.0403 
  61   0.0000       0.040983         1.1152 
  62   0.0000       0.044810         1.2194 
  63   0.0000       0.056454         1.5362 
  64   0.0000       0.063054         1.7158 
*Only the first 10 virtual orbitals were printed.

                    ********************************
                    * MULLIKEN POPULATION ANALYSIS *
                    ********************************

-----------------------
MULLIKEN ATOMIC CHARGES
-----------------------
   0 C :   -0.609705
   1 C :   -0.378616
   2 O :   -0.264142
   3 C :    0.098443
   4 C :    0.056733
   5 O :   -0.243326
   6 O :   -0.237720
   7 C :   -0.002789
   8 C :    0.016608
   9 O :   -0.239085
  10 C :   -0.056609
  11 C :   -0.237108
  12 C :   -0.305377
  13 C :    0.104542
  14 H :    0.134506
  15 H :    0.156981
  16 H :    0.128320
  17 H :    0.145474
  18 H :    0.133638
  19 H :    0.140776
  20 H :    0.132559
  21 H :    0.131233
  22 H :    0.158555
  23 H :    0.137483
  24 H :    0.131264
  25 H :    0.164619
  26 H :    0.130983
  27 H :    0.156164
  28 H :    0.162073
  29 H :    0.153524
Sum of atomic charges:   -0.0000000

--------------------------------
MULLIKEN REDUCED ORBITAL CHARGES
--------------------------------
  0 C s       :     3.832320  s :     3.832320
      pz      :     0.727606  p :     2.679899
      px      :     0.929205
      py      :     1.023088
      dz2     :     0.021646  d :     0.097486
      dxz     :     0.015651
      dyz     :     0.016467
      dx2y2   :     0.024696
      dxy     :     0.019027

  1 C s       :     3.830248  s :     3.830248
      pz      :     0.790687  p :     2.451722
      px      :     0.871351
      py      :     0.789684
      dz2     :     0.020490  d :     0.096646
      dxz     :     0.012394
      dyz     :     0.017235
      dx2y2   :     0.022064
      dxy     :     0.024462

  2 O s       :     3.744168  s :     3.744168
      pz      :     1.604727  p :     4.490961
      px      :     1.532438
      py      :     1.353797
      dz2     :     0.004408  d :     0.029013
      dxz     :     0.006364
      dyz     :     0.008060
      dx2y2   :     0.005949
      dxy     :     0.004232

  3 C s       :     3.106079  s :     3.106079
      pz      :     0.902462  p :     2.732495
      px      :     0.854882
      py      :     0.975150
      dz2     :     0.012664  d :     0.062984
      dxz     :     0.012170
      dyz     :     0.011864
      dx2y2   :     0.010622
      dxy     :     0.015663

  4 C s       :     3.164638  s :     3.164638
      pz      :     0.980611  p :     2.716485
      px      :     0.822944
      py      :     0.912931
      dz2     :     0.011635  d :     0.062144
      dxz     :     0.017036
      dyz     :     0.005958
      dx2y2   :     0.015046
      dxy     :     0.012470

  5 O s       :     3.737565  s :     3.737565
      pz      :     1.787402  p :     4.477185
      px      :     1.477452
      py      :     1.212332
      dz2     :     0.003921  d :     0.028576
      dxz     :     0.004666
      dyz     :     0.004574
      dx2y2   :     0.009001
      dxy     :     0.006413

  6 O s       :     3.712845  s :     3.712845
      pz      :     1.607698  p :     4.496775
      px      :     1.573099
      py      :     1.315977
      dz2     :     0.004760  d :     0.028100
      dxz     :     0.004896
      dyz     :     0.007579
      dx2y2   :     0.004529
      dxy     :     0.006335

  7 C s       :     3.185428  s :     3.185428
      pz      :     0.837316  p :     2.753440
      px      :     1.088062
      py      :     0.828062
      dz2     :     0.017070  d :     0.063921
      dxz     :     0.006298
      dyz     :     0.016057
      dx2y2   :     0.008086
      dxy     :     0.016410

  8 C s       :     3.170740  s :     3.170740
      pz      :     0.968452  p :     2.749664
      px      :     1.060492
      py      :     0.720720
      dz2     :     0.011539  d :     0.062987
      dxz     :     0.006045
      dyz     :     0.015878
      dx2y2   :     0.017320
      dxy     :     0.012204

  9 O s       :     3.713280  s :     3.713280
      pz      :     1.704297  p :     4.498486
      px      :     1.485962
      py      :     1.308227
      dz2     :     0.003913  d :     0.027319
      dxz     :     0.005592
      dyz     :     0.005387
      dx2y2   :     0.008455
      dxy     :     0.003973

 10 C s       :     3.109752  s :     3.109752
      pz      :     1.042791  p :     2.910909
      px      :     0.882592
      py      :     0.985527
      dz2     :     0.010679  d :     0.035948
      dxz     :     0.006308
      dyz     :     0.002540
      dx2y2   :     0.010583
      dxy     :     0.005838

 11 C s       :     3.265519  s :     3.265519
      pz      :     0.923942  p :     2.934171
      px      :     0.963229
      py      :     1.046999
      dz2     :     0.009496  d :     0.037418
      dxz     :     0.008645
      dyz     :     0.004942
      dx2y2   :     0.009332
      dxy     :     0.005003

 12 C s       :     3.323426  s :     3.323426
      pz      :     0.942964  p :     2.944776
      px      :     0.954853
      py      :     1.046959
      dz2     :     0.009396  d :     0.037175
      dxz     :     0.006758
      dyz     :     0.006682
      dx2y2   :     0.004898
      dxy     :     0.009440

 13 C s       :     2.962890  s :     2.962890
      pz      :     1.041365  p :     2.896836
      px      :     0.832021
      py      :     1.023450
      dz2     :     0.010864  d :     0.035732
      dxz     :     0.006305
      dyz     :     0.002442
      dx2y2   :     0.010206
      dxy     :     0.005915

 14 H s       :     0.854999  s :     0.854999
      pz      :     0.003166  p :     0.010494
      px      :     0.002179
      py      :     0.005149

 15 H s       :     0.832307  s :     0.832307
      pz      :     0.001980  p :     0.010712
      px      :     0.004984
      py      :     0.003747

 16 H s       :     0.861192  s :     0.861192
      pz      :     0.002254  p :     0.010488
      px      :     0.001675
      py      :     0.006558

 17 H s       :     0.843914  s :     0.843914
      pz      :     0.004291  p :     0.010612
      px      :     0.004266
      py      :     0.002055

 18 H s       :     0.855664  s :     0.855664
      pz      :     0.001912  p :     0.010698
      px      :     0.005532
      py      :     0.003254

 19 H s       :     0.848728  s :     0.848728
      pz      :     0.002155  p :     0.010496
      px      :     0.004733
      py      :     0.003608

 20 H s       :     0.856945  s :     0.856945
      pz      :     0.002448  p :     0.010496
      px      :     0.006705
      py      :     0.001343

 21 H s       :     0.858277  s :     0.858277
      pz      :     0.004018  p :     0.010490
      px      :     0.003251
      py      :     0.003220

 22 H s       :     0.830439  s :     0.830439
      pz      :     0.006685  p :     0.011006
      px      :     0.002010
      py      :     0.002312

 23 H s       :     0.851363  s :     0.851363
      pz      :     0.002379  p :     0.011154
      px      :     0.002322
      py      :     0.006452

 24 H s       :     0.857855  s :     0.857855
      pz      :     0.003209  p :     0.010880
      px      :     0.005195
      py      :     0.002477

 25 H s       :     0.824454  s :     0.824454
      pz      :     0.002172  p :     0.010927
      px      :     0.002316
      py      :     0.006439

 26 H s       :     0.858137  s :     0.858137
      pz      :     0.002274  p :     0.010881
      px      :     0.004573
      py      :     0.004033

 27 H s       :     0.832945  s :     0.832945
      pz      :     0.002949  p :     0.010891
      px      :     0.002475
      py      :     0.005467

 28 H s       :     0.827004  s :     0.827004
      pz      :     0.006612  p :     0.010923
      px      :     0.002034
      py      :     0.002277

 29 H s       :     0.835298  s :     0.835298
      pz      :     0.002420  p :     0.011178
      px      :     0.002248
      py      :     0.006510



                     *******************************
                     * LOEWDIN POPULATION ANALYSIS *
                     *******************************

----------------------
LOEWDIN ATOMIC CHARGES
----------------------
   0 C :    0.084108
   1 C :    0.091954
   2 O :   -0.366398
   3 C :   -0.044564
   4 C :   -0.039254
   5 O :   -0.370238
   6 O :   -0.376472
   7 C :   -0.062046
   8 C :   -0.053891
   9 O :   -0.393632
  10 C :   -0.214955
  11 C :   -0.254044
  12 C :   -0.254245
  13 C :   -0.224402
  14 H :    0.151527
  15 H :    0.163594
  16 H :    0.148934
  17 H :    0.155765
  18 H :    0.146058
  19 H :    0.155333
  20 H :    0.151703
  21 H :    0.146434
  22 H :    0.170433
  23 H :    0.160218
  24 H :    0.139454
  25 H :    0.164097
  26 H :    0.139688
  27 H :    0.153758
  28 H :    0.170974
  29 H :    0.160112

-------------------------------
LOEWDIN REDUCED ORBITAL CHARGES
-------------------------------
  0 C s       :     2.800846  s :     2.800846
      pz      :     1.013850  p :     2.898139
      px      :     0.981554
      py      :     0.902736
      dz2     :     0.049537  d :     0.216907
      dxz     :     0.034990
      dyz     :     0.033785
      dx2y2   :     0.056564
      dxy     :     0.042031

  1 C s       :     2.806591  s :     2.806591
      pz      :     1.025088  p :     2.886432
      px      :     0.989335
      py      :     0.872009
      dz2     :     0.047210  d :     0.215023
      dxz     :     0.026270
      dyz     :     0.038201
      dx2y2   :     0.048898
      dxy     :     0.054443

  2 O s       :     3.490711  s :     3.490711
      pz      :     1.684237  p :     4.809678
      px      :     1.641216
      py      :     1.484225
      dz2     :     0.008850  d :     0.066010
      dxz     :     0.012507
      dyz     :     0.017133
      dx2y2   :     0.014330
      dxy     :     0.013190

  3 C s       :     2.867383  s :     2.867383
      pz      :     1.019672  p :     3.043362
      px      :     0.968718
      py      :     1.054972
      dz2     :     0.028420  d :     0.133819
      dxz     :     0.027001
      dyz     :     0.025137
      dx2y2   :     0.021675
      dxy     :     0.031586

  4 C s       :     2.869614  s :     2.869614
      pz      :     1.057474  p :     3.037678
      px      :     0.945712
      py      :     1.034491
      dz2     :     0.025229  d :     0.131963
      dxz     :     0.037049
      dyz     :     0.011837
      dx2y2   :     0.032044
      dxy     :     0.025805

  5 O s       :     3.487445  s :     3.487445
      pz      :     1.816085  p :     4.817648
      px      :     1.613948
      py      :     1.387615
      dz2     :     0.008084  d :     0.065145
      dxz     :     0.008322
      dyz     :     0.010582
      dx2y2   :     0.022178
      dxy     :     0.015979

  6 O s       :     3.490183  s :     3.490183
      pz      :     1.688222  p :     4.820923
      px      :     1.673575
      py      :     1.459125
      dz2     :     0.010172  d :     0.065366
      dxz     :     0.008525
      dyz     :     0.017834
      dx2y2   :     0.011792
      dxy     :     0.017043

  7 C s       :     2.867119  s :     2.867119
      pz      :     0.991701  p :     3.058977
      px      :     1.120383
      py      :     0.946893
      dz2     :     0.039207  d :     0.135950
      dxz     :     0.011977
      dyz     :     0.035369
      dx2y2   :     0.015961
      dxy     :     0.033435

  8 C s       :     2.869805  s :     2.869805
      pz      :     1.062097  p :     3.050117
      px      :     1.109623
      py      :     0.878397
      dz2     :     0.026113  d :     0.133970
      dxz     :     0.011522
      dyz     :     0.034808
      dx2y2   :     0.037223
      dxy     :     0.024303

  9 O s       :     3.486242  s :     3.486242
      pz      :     1.749978  p :     4.843197
      px      :     1.616713
      py      :     1.476505
      dz2     :     0.008315  d :     0.064193
      dxz     :     0.011761
      dyz     :     0.011611
      dx2y2   :     0.019698
      dxy     :     0.012808

 10 C s       :     2.899679  s :     2.899679
      pz      :     1.106083  p :     3.238472
      px      :     1.044923
      py      :     1.087467
      dz2     :     0.020679  d :     0.076804
      dxz     :     0.014856
      dyz     :     0.005154
      dx2y2   :     0.022465
      dxy     :     0.013650

 11 C s       :     2.908894  s :     2.908894
      pz      :     1.076944  p :     3.265342
      px      :     1.079368
      py      :     1.109030
      dz2     :     0.022038  d :     0.079808
      dxz     :     0.018147
      dyz     :     0.010259
      dx2y2   :     0.018278
      dxy     :     0.011086

 12 C s       :     2.912071  s :     2.912071
      pz      :     1.083424  p :     3.263084
      px      :     1.068649
      py      :     1.111011
      dz2     :     0.021727  d :     0.079091
      dxz     :     0.015003
      dyz     :     0.013401
      dx2y2   :     0.009991
      dxy     :     0.018969

 13 C s       :     2.898408  s :     2.898408
      pz      :     1.110429  p :     3.249799
      px      :     1.053565
      py      :     1.085805
      dz2     :     0.020928  d :     0.076196
      dxz     :     0.014830
      dyz     :     0.004892
      dx2y2   :     0.021873
      dxy     :     0.013673

 14 H s       :     0.811702  s :     0.811702
      pz      :     0.011336  p :     0.036771
      px      :     0.006667
      py      :     0.018768

 15 H s       :     0.797567  s :     0.797567
      pz      :     0.005738  p :     0.038839
      px      :     0.019500
      py      :     0.013601

 16 H s       :     0.814376  s :     0.814376
      pz      :     0.006185  p :     0.036689
      px      :     0.005954
      py      :     0.024550

 17 H s       :     0.806124  s :     0.806124
      pz      :     0.016181  p :     0.038112
      px      :     0.016023
      py      :     0.005908

 18 H s       :     0.815047  s :     0.815047
      pz      :     0.005702  p :     0.038895
      px      :     0.021597
      py      :     0.011597

 19 H s       :     0.807852  s :     0.807852
      pz      :     0.007064  p :     0.036815
      px      :     0.017148
      py      :     0.012603

 20 H s       :     0.811566  s :     0.811566
      pz      :     0.006849  p :     0.036731
      px      :     0.025646
      py      :     0.004236

 21 H s       :     0.815677  s :     0.815677
      pz      :     0.014746  p :     0.037889
      px      :     0.011411
      py      :     0.011731

 22 H s       :     0.791423  s :     0.791423
      pz      :     0.025644  p :     0.038143
      px      :     0.006007
      py      :     0.006492

 23 H s       :     0.801165  s :     0.801165
      pz      :     0.007049  p :     0.038618
      px      :     0.007019
      py      :     0.024550

 24 H s       :     0.823020  s :     0.823020
      pz      :     0.010632  p :     0.037526
      px      :     0.019094
      py      :     0.007801

 25 H s       :     0.797458  s :     0.797458
      pz      :     0.006436  p :     0.038445
      px      :     0.006727
      py      :     0.025282

 26 H s       :     0.822846  s :     0.822846
      pz      :     0.006702  p :     0.037466
      px      :     0.016248
      py      :     0.014515

 27 H s       :     0.808432  s :     0.808432
      pz      :     0.009791  p :     0.037810
      px      :     0.007431
      py      :     0.020588

 28 H s       :     0.790881  s :     0.790881
      pz      :     0.025391  p :     0.038145
      px      :     0.006081
      py      :     0.006673

 29 H s       :     0.801238  s :     0.801238
      pz      :     0.007029  p :     0.038650
      px      :     0.006662
      py      :     0.024959



                      *****************************
                      * MAYER POPULATION ANALYSIS *
                      *****************************

  NA   - Mulliken gross atomic population
  ZA   - Total nuclear charge
  QA   - Mulliken gross atomic charge
  VA   - Mayer's total valence
  BVA  - Mayer's bonded valence
  FA   - Mayer's free valence

  ATOM       NA         ZA         QA         VA         BVA        FA
  0 C      6.6097     6.0000    -0.6097     4.9541     4.9541    -0.0000
  1 C      6.3786     6.0000    -0.3786     4.6163     4.6163     0.0000
  2 O      8.2641     8.0000    -0.2641     1.6917     1.6917    -0.0000
  3 C      5.9016     6.0000     0.0984     3.1694     3.1694    -0.0000
  4 C      5.9433     6.0000     0.0567     3.2843     3.2843    -0.0000
  5 O      8.2433     8.0000    -0.2433     1.7238     1.7238    -0.0000
  6 O      8.2377     8.0000    -0.2377     1.7654     1.7654     0.0000
  7 C      6.0028     6.0000    -0.0028     3.4573     3.4573    -0.0000
  8 C      5.9834     6.0000     0.0166     3.4474     3.4474    -0.0000
  9 O      8.2391     8.0000    -0.2391     1.7054     1.7054     0.0000
 10 C      6.0566     6.0000    -0.0566     3.3689     3.3689    -0.0000
 11 C      6.2371     6.0000    -0.2371     3.5336     3.5336    -0.0000
 12 C      6.3054     6.0000    -0.3054     3.7031     3.7031    -0.0000
 13 C      5.8955     6.0000     0.1045     3.1468     3.1468    -0.0000
 14 H      0.8655     1.0000     0.1345     0.9473     0.9473    -0.0000
 15 H      0.8430     1.0000     0.1570     0.9393     0.9393     0.0000
 16 H      0.8717     1.0000     0.1283     0.9456     0.9456     0.0000
 17 H      0.8545     1.0000     0.1455     0.9409     0.9409    -0.0000
 18 H      0.8664     1.0000     0.1336     0.9380     0.9380    -0.0000
 19 H      0.8592     1.0000     0.1408     0.9453     0.9453    -0.0000
 20 H      0.8674     1.0000     0.1326     0.9455     0.9455    -0.0000
 21 H      0.8688     1.0000     0.1312     0.9385     0.9385    -0.0000
 22 H      0.8414     1.0000     0.1586     0.9436     0.9436    -0.0000
 23 H      0.8625     1.0000     0.1375     0.9424     0.9424     0.0000
 24 H      0.8687     1.0000     0.1313     0.9441     0.9441    -0.0000
 25 H      0.8354     1.0000     0.1646     0.9392     0.9392     0.0000
 26 H      0.8690     1.0000     0.1310     0.9429     0.9429     0.0000
 27 H      0.8438     1.0000     0.1562     0.9414     0.9414    -0.0000
 28 H      0.8379     1.0000     0.1621     0.9401     0.9401     0.0000
 29 H      0.8465     1.0000     0.1535     0.9371     0.9371    -0.0000

  Mayer bond orders larger than 0.100000
B(  0-C ,  1-C ) :   0.8339 B(  0-C ,  2-O ) :  -0.2019 B(  0-C ,  3-C ) :   0.1350 
B(  0-C ,  5-O ) :   1.3280 B(  0-C ,  6-O ) :  -0.4931 B(  0-C ,  7-C ) :   0.2514 
B(  0-C ,  8-C ) :   0.1172 B(  0-C ,  9-O ) :   1.6479 B(  0-C , 10-C ) :  -0.1324 
B(  0-C , 13-C ) :   1.1175 B(  0-C , 29-H ) :   0.2433 B(  1-C ,  2-O ) :   1.3631 
B(  1-C ,  3-C ) :  -0.1901 B(  1-C ,  6-O ) :   1.8984 B(  1-C ,  9-O ) :  -0.2380 
B(  1-C , 10-C ) :   1.1166 B(  2-O ,  3-C ) :   0.6984 B(  2-O , 10-C ) :  -0.1450 
B(  3-C ,  4-C ) :   0.7958 B(  3-C ,  6-O ) :  -0.1766 B(  3-C , 14-H ) :   0.9724 
B(  3-C , 15-H ) :   1.0441 B(  4-C ,  5-O ) :   0.6253 B(  4-C ,  9-O ) :  -0.1477 
B(  4-C , 16-H ) :   1.0083 B(  4-C , 17-H ) :   1.0052 B(  6-O ,  7-C ) :   0.6824 
B(  6-O , 10-C ) :  -0.2161 B(  7-C ,  8-C ) :   0.8598 B(  7-C , 13-C ) :  -0.1471 
B(  7-C , 18-H ) :   0.9651 B(  7-C , 19-H ) :   0.9976 B(  8-C ,  9-O ) :   0.6824 
B(  8-C , 13-C ) :  -0.1220 B(  8-C , 20-H ) :   0.9892 B(  8-C , 21-H ) :   0.9908 
B(  9-O , 13-C ) :  -0.1632 B( 10-C , 11-C ) :   0.9464 B( 10-C , 22-H ) :   1.0039 
B( 10-C , 23-H ) :   0.9214 B( 11-C , 12-C ) :   0.8923 B( 11-C , 24-H ) :   0.9674 
B( 11-C , 25-H ) :   0.9811 B( 12-C , 13-C ) :   0.9376 B( 12-C , 26-H ) :   0.9859 
B( 12-C , 27-H ) :   0.9931 B( 13-C , 28-H ) :   1.0353 B( 13-C , 29-H ) :   0.7650 


-------
TIMINGS
-------

Total SCF time: 0 days 0 hours 2 min 50 sec 

Total time                  ....     170.045 sec
Sum of individual times     ....     169.985 sec  (100.0%)

SCF preparation             ....       0.054 sec  (  0.0%)
Fock matrix formation       ....     169.618 sec  ( 99.7%)
  Startup                   ....       0.005 sec  (  0.0% of F)
  Split-RI-J                ....      11.049 sec  (  6.5% of F)
  Chain of spheres X        ....     137.128 sec  ( 80.8% of F)
  XC integration            ....      21.321 sec  ( 12.6% of F)
    XC Preparation          ....       0.000 sec  (  0.0% of XC)
    Basis function eval.    ....       7.370 sec  ( 34.6% of XC)
    Density eval.           ....       4.547 sec  ( 21.3% of XC)
    XC-Functional eval.     ....       0.399 sec  (  1.9% of XC)
    XC-Potential eval.      ....       8.162 sec  ( 38.3% of XC)
Diagonalization             ....       0.000 sec  (  0.0%)
Density matrix formation    ....       0.019 sec  (  0.0%)
Total Energy calculation    ....       0.052 sec  (  0.0%)
Population analysis         ....       0.010 sec  (  0.0%)
Orbital Transformation      ....       0.021 sec  (  0.0%)
Orbital Orthonormalization  ....       0.000 sec  (  0.0%)
DIIS solution               ....       0.115 sec  (  0.1%)
SOSCF solution              ....       0.098 sec  (  0.1%)
Finished LeanSCF after 170.1 sec

Maximum memory used throughout the entire LEANSCF-calculation: 53.5 MB

------------------------------------------------------------------------------
                         ORCA PROPERTY INTEGRAL CALCULATIONS
------------------------------------------------------------------------------

GBWName                                   ... opt.gbw
Number of atoms                           ...     30
Number of basis functions                 ...    332
Max core memory                           ...   1024 MB

Dipole integrals                          ... YES
Quadrupole integrals                      ...  NO
Linear momentum integrals                 ...  NO
Angular momentum integrals                ...  NO
[...]
      dxz     :     0.011472
      dyz     :     0.010472
      dx2y2   :     0.019408
      dxy     :     0.012463

 10 C s       :     2.890656  s :     2.890656
      pz      :     1.106700  p :     3.239565
      px      :     1.046056
      py      :     1.086810
      dz2     :     0.020861  d :     0.079370
      dxz     :     0.016223
      dyz     :     0.005467
      dx2y2   :     0.023821
      dxy     :     0.012997

 11 C s       :     2.901833  s :     2.901833
      pz      :     1.073232  p :     3.263056
      px      :     1.082059
      py      :     1.107765
      dz2     :     0.020913  d :     0.079600
      dxz     :     0.019026
      dyz     :     0.009937
      dx2y2   :     0.018557
      dxy     :     0.011167

 12 C s       :     2.905926  s :     2.905926
      pz      :     1.079418  p :     3.259896
      px      :     1.068080
      py      :     1.112397
      dz2     :     0.020494  d :     0.078652
      dxz     :     0.014454
      dyz     :     0.014289
      dx2y2   :     0.009348
      dxy     :     0.020067

 13 C s       :     2.890001  s :     2.890001
      pz      :     1.112461  p :     3.250755
      px      :     1.052984
      py      :     1.085310
      dz2     :     0.021816  d :     0.078418
      dxz     :     0.014755
      dyz     :     0.005049
      dx2y2   :     0.022583
      dxy     :     0.014215

 14 H s       :     0.809585  s :     0.809585
      pz      :     0.013216  p :     0.038577
      px      :     0.008037
      py      :     0.017323

 15 H s       :     0.790730  s :     0.790730
      pz      :     0.006882  p :     0.041219
      px      :     0.018374
      py      :     0.015963

 16 H s       :     0.810921  s :     0.810921
      pz      :     0.006972  p :     0.038297
      px      :     0.009305
      py      :     0.022019

 17 H s       :     0.809532  s :     0.809532
      pz      :     0.017963  p :     0.039156
      px      :     0.015492
      py      :     0.005701

 18 H s       :     0.813437  s :     0.813437
      pz      :     0.005901  p :     0.039733
      px      :     0.023434
      py      :     0.010398

 19 H s       :     0.807183  s :     0.807183
      pz      :     0.008617  p :     0.038557
      px      :     0.015877
      py      :     0.014064

 20 H s       :     0.809520  s :     0.809520
      pz      :     0.006588  p :     0.038321
      px      :     0.027333
      py      :     0.004399

 21 H s       :     0.816503  s :     0.816503
      pz      :     0.017041  p :     0.038737
      px      :     0.009171
      py      :     0.012525

 22 H s       :     0.790931  s :     0.790931
      pz      :     0.026265  p :     0.040194
      px      :     0.006833
      py      :     0.007096

 23 H s       :     0.800165  s :     0.800165
      pz      :     0.007343  p :     0.039715
      px      :     0.007203
      py      :     0.025169

 24 H s       :     0.823054  s :     0.823054
      pz      :     0.011744  p :     0.039331
      px      :     0.019906
      py      :     0.007681

 25 H s       :     0.796850  s :     0.796850
      pz      :     0.006721  p :     0.040513
      px      :     0.007897
      py      :     0.025895

 26 H s       :     0.822387  s :     0.822387
      pz      :     0.007012  p :     0.039174
      px      :     0.016557
      py      :     0.015605

 27 H s       :     0.809892  s :     0.809892
      pz      :     0.011250  p :     0.039772
      px      :     0.008198
      py      :     0.020325

 28 H s       :     0.790606  s :     0.790606
      pz      :     0.026443  p :     0.040193
      px      :     0.006524
      py      :     0.007227

 29 H s       :     0.803451  s :     0.803451
      pz      :     0.007643  p :     0.040160
      px      :     0.007063
      py      :     0.025453



                      *****************************
                      * MAYER POPULATION ANALYSIS *
                      *****************************

  NA   - Mulliken gross atomic population
  ZA   - Total nuclear charge
  QA   - Mulliken gross atomic charge
  VA   - Mayer's total valence
  BVA  - Mayer's bonded valence
  FA   - Mayer's free valence

  ATOM       NA         ZA         QA         VA         BVA        FA
  0 C      6.5784     6.0000    -0.5784     5.0364     5.0364     0.0000
  1 C      6.3862     6.0000    -0.3862     4.6786     4.6786    -0.0000
  2 O      8.2844     8.0000    -0.2844     1.6649     1.6649    -0.0000
  3 C      5.9133     6.0000     0.0867     3.2691     3.2691    -0.0000
  4 C      5.9191     6.0000     0.0809     3.3708     3.3708    -0.0000
  5 O      8.2449     8.0000    -0.2449     1.6682     1.6682    -0.0000
  6 O      8.2671     8.0000    -0.2671     1.7511     1.7511    -0.0000
  7 C      5.9916     6.0000     0.0084     3.4816     3.4816     0.0000
  8 C      5.9670     6.0000     0.0330     3.4718     3.4718    -0.0000
  9 O      8.2704     8.0000    -0.2704     1.6977     1.6977    -0.0000
 10 C      6.0628     6.0000    -0.0628     3.3431     3.3431     0.0000
 11 C      6.2271     6.0000    -0.2271     3.5422     3.5422     0.0000
 12 C      6.3232     6.0000    -0.3232     3.7587     3.7587    -0.0000
 13 C      5.8666     6.0000     0.1334     3.0416     3.0416    -0.0000
 14 H      0.8633     1.0000     0.1367     0.9460     0.9460    -0.0000
 15 H      0.8348     1.0000     0.1652     0.9372     0.9372    -0.0000
 16 H      0.8694     1.0000     0.1306     0.9438     0.9438     0.0000
 17 H      0.8624     1.0000     0.1376     0.9419     0.9419     0.0000
 18 H      0.8666     1.0000     0.1334     0.9376     0.9376     0.0000
 19 H      0.8582     1.0000     0.1418     0.9444     0.9444    -0.0000
 20 H      0.8668     1.0000     0.1332     0.9442     0.9442    -0.0000
 21 H      0.8718     1.0000     0.1282     0.9388     0.9388    -0.0000
 22 H      0.8417     1.0000     0.1583     0.9441     0.9441     0.0000
 23 H      0.8611     1.0000     0.1389     0.9411     0.9411     0.0000
 24 H      0.8676     1.0000     0.1324     0.9433     0.9433     0.0000
 25 H      0.8342     1.0000     0.1658     0.9372     0.9372     0.0000
 26 H      0.8672     1.0000     0.1328     0.9414     0.9414    -0.0000
 27 H      0.8445     1.0000     0.1555     0.9402     0.9402    -0.0000
 28 H      0.8371     1.0000     0.1629     0.9402     0.9402     0.0000
 29 H      0.8513     1.0000     0.1487     0.9374     0.9374     0.0000

  Mayer bond orders larger than 0.100000
B(  0-C ,  1-C ) :   0.8381 B(  0-C ,  2-O ) :  -0.1799 B(  0-C ,  3-C ) :   0.1176 
B(  0-C ,  5-O ) :   1.2812 B(  0-C ,  6-O ) :  -0.4554 B(  0-C ,  7-C ) :   0.2981 
B(  0-C ,  8-C ) :   0.1132 B(  0-C ,  9-O ) :   1.6157 B(  0-C , 10-C ) :  -0.1069 
B(  0-C , 13-C ) :   1.0700 B(  0-C , 18-H ) :   0.1278 B(  0-C , 29-H ) :   0.2482 
B(  1-C ,  2-O ) :   1.3696 B(  1-C ,  3-C ) :  -0.1473 B(  1-C ,  6-O ) :   1.8443 
B(  1-C ,  9-O ) :  -0.1671 B(  1-C , 10-C ) :   1.0785 B(  2-O ,  3-C ) :   0.7149 
B(  2-O , 10-C ) :  -0.1967 B(  3-C ,  4-C ) :   0.8729 B(  3-C ,  6-O ) :  -0.1601 
B(  3-C , 14-H ) :   0.9702 B(  3-C , 15-H ) :   1.0211 B(  4-C ,  5-O ) :   0.6071 
B(  4-C ,  9-O ) :  -0.1012 B(  4-C , 16-H ) :   1.0005 B(  4-C , 17-H ) :   0.9854 
B(  6-O ,  7-C ) :   0.6729 B(  6-O , 10-C ) :  -0.2230 B(  7-C ,  8-C ) :   0.8913 
B(  7-C , 13-C ) :  -0.1869 B(  7-C , 18-H ) :   0.9600 B(  7-C , 19-H ) :   0.9889 
B(  8-C ,  9-O ) :   0.6582 B(  8-C , 13-C ) :  -0.1062 B(  8-C , 20-H ) :   0.9893 
B(  8-C , 21-H ) :   0.9846 B(  9-O , 13-C ) :  -0.1957 B( 10-C , 11-C ) :   0.9375 
B( 10-C , 22-H ) :   1.0287 B( 10-C , 23-H ) :   0.9216 B( 11-C , 12-C ) :   0.9175 
B( 11-C , 24-H ) :   0.9687 B( 11-C , 25-H ) :   0.9790 B( 12-C , 13-C ) :   0.9342 
B( 12-C , 26-H ) :   0.9880 B( 12-C , 27-H ) :   0.9925 B( 13-C , 28-H ) :   1.0360 
B( 13-C , 29-H ) :   0.7559 

-------
TIMINGS
-------

Total SCF time: 0 days 0 hours 2 min 2 sec 

Total time                  ....     122.851 sec
Sum of individual times     ....     122.783 sec  ( 99.9%)

SCF preparation             ....       0.102 sec  (  0.1%)
Fock matrix formation       ....     122.549 sec  ( 99.8%)
  Startup                   ....       0.003 sec  (  0.0% of F)
  Split-RI-J                ....       4.899 sec  (  4.0% of F)
  Chain of spheres X        ....     109.219 sec  ( 89.1% of F)
  XC integration            ....       8.402 sec  (  6.9% of F)
    XC Preparation          ....       0.000 sec  (  0.0% of XC)
    Basis function eval.    ....       2.685 sec  ( 32.0% of XC)
    Density eval.           ....       1.792 sec  ( 21.3% of XC)
    XC-Functional eval.     ....       0.147 sec  (  1.8% of XC)
    XC-Potential eval.      ....       3.612 sec  ( 43.0% of XC)
Diagonalization             ....       0.000 sec  (  0.0%)
Density matrix formation    ....       0.006 sec  (  0.0%)
Total Energy calculation    ....       0.007 sec  (  0.0%)
Population analysis         ....       0.048 sec  (  0.0%)
Orbital Transformation      ....       0.017 sec  (  0.0%)
Orbital Orthonormalization  ....       0.000 sec  (  0.0%)
DIIS solution               ....       0.019 sec  (  0.0%)
SOSCF solution              ....       0.035 sec  (  0.0%)
Finished LeanSCF after 122.9 sec

Maximum memory used throughout the entire LEANSCF-calculation: 54.5 MB

------------------------------------------------------------------------------
                         ORCA PROPERTY INTEGRAL CALCULATIONS
------------------------------------------------------------------------------

GBWName                                   ... opt.gbw
Number of atoms                           ...     30
Number of basis functions                 ...    332
Max core memory                           ...   1024 MB

Dipole integrals                          ... YES
Quadrupole integrals                      ...  NO
Linear momentum integrals                 ...  NO
Angular momentum integrals                ...  NO
Higher moments length integrals           ...  NO
Higher moments velocity integrals         ...  NO
Kinetic energy integrals                  ...  NO
GIAO right hand sides                     ...  NO
GIAO dipole derivative integrals          ...  NO
SOC integrals                             ...  NO
EPR diamagnetic integrals (GIAO)          ...  NO
EPR gauge integrals                       ...  NO
Field gradient integrals                  ...  NO (   0 nuclei)
Spin-dipole/Fermi contact integrals       ...  NO (   0 nuclei)
Contact density integrals                 ...  NO (   0 nuclei)
Nucleus-orbit integrals                   ...  NO (   0 nuclei)
Geometric perturbations                   ... YES (  30 nuclei)

Choice of electric origin   ... Center of mass
Position of electric origin ... ( -0.3658,  0.2053, -0.0683) 
Choice of magnetic origin   ... GIAO
Position of magnetic origin ... (  0.0000,  0.0000,  0.0000) 

Calculating integrals                     ... Electric Dipole (Length)     done (  0.0 sec)
Calculating integrals                     ... Geometrical perturbation right hand sides

-----------------------
GEOMETRIC PERTURBATIONS (30 nuclei)
-----------------------

MaxCore                            ...   1024 MB
Number of batches                  ...      1

BATCH   0: Atoms    0 -   29 ( 90 perturbations)
   => H(core) and overlap derivative integrals     ... done (     0.8 sec)
   => Making and storing internal U-coefficients   ... done (     0.1 sec)
   => RI-J derivative integrals                    ... done (    26.9 sec)
   => RI-J response operators                      ... done (    10.5 sec)
   => Chain of spheres derivative integrals        ... done (   125.2 sec)
   => Chain of spheres response operator           ... done (   136.7 sec)
   => XC derivative integrals                      ... done (   591.9 sec)
   => XC response operators                        ... done (   161.0 sec)
   => Completing and storing right hand sides      ... done (     0.1 sec)
   => Total time for right hand sides = 1054.9 sec

  geometrical perturbations done (1054.9 sec)

Property integrals calculated in 1055.0 sec

Maximum memory used throughout the entire PROPINT-calculation: 569.1 MB


-------------------------------------------------------------------------------
                          DFT DISPERSION CORRECTION                            
                                                                               
                                DFTD4 V3.4.0                                   
-------------------------------------------------------------------------------
The B3LYP functional is recognized
Active option DFTDOPT                   ...         5   

-------------------------   ----------------
Dispersion correction           -0.057990245
-------------------------   ----------------


-------------------------   --------------------
FINAL SINGLE POINT ENERGY      -691.244614140147
-------------------------   --------------------

                                *** OPTIMIZATION RUN DONE ***

------------------------------------------------------------------------------
                            ORCA SCF RESPONSE CALCULATION
------------------------------------------------------------------------------

GBWName                                 ... opt.gbw
Number of atoms                         ...     30
Number of basis functions               ...    332
Max core memory                         ...   1024 MB

Electric field perturbation             ...  NO
Quadrupolar field perturbation          ...  NO
Magnetic field perturbation (no GIAO)   ...  NO
Magnetic field perturbation (with GIAO) ...  NO
Linear momentum (velocity) perturbation ...  NO
Spin-orbit coupling perturbation        ...  NO
Choice of electric origin               ... Center of mass
Position of electric origin             ...    -0.365773     0.205259    -0.068264
Choice of magnetic origin               ... GIAO
Position of magnetic origin             ...     0.000000     0.000000     0.000000
Nuclear geometric perturbations         ... YES (  90 perturbations)
Nucleus-orbit perturbations             ...  NO (   0 perturbations)
Spin-dipole/Fermi contact perturbations ...  NO (   0 perturbations)

Total number of real perturbations      ...     90
Total number of imaginary perturbations ...      0
Total number of triplet perturbations   ...      0
Total number of SOC perturbations       ...      0


                                **********************
                                * REAL PERTURBATIONS *
                                **********************



-------------------
SHARK CP-SCF DRIVER
-------------------

Dimension of the orbital basis          ...    332
Dimension of the CPSCF-problem          ...  15012
Number of operators                     ...      1
Max. number of iterations               ...    128
Convergence Tolerance                   ... 1.0e-04
Number of perturbations                 ...     90
Perturbation type                       ... REAL

----------------------------
POPLE LINEAR EQUATION SOLVER
----------------------------

  ITERATION   0:   ||err||_max =   3.1039e-01 (  72.0 sec   0/ 90 done)
  ITERATION   1:   ||err||_max =   2.9734e-02 (  64.5 sec   0/ 90 done)
  ITERATION   2:   ||err||_max =   9.6841e-03 (  68.0 sec   0/ 90 done)
  ITERATION   3:   ||err||_max =   3.1744e-03 (  68.6 sec   0/ 90 done)
  ITERATION   4:   ||err||_max =   1.1268e-03 (  64.8 sec   4/ 90 done)
  ITERATION   5:   ||err||_max =   2.3358e-04 ( 530.1 sec  54/ 90 done)
  ITERATION   6:   ||err||_max =   6.9277e-05 (  23.7 sec  90/ 90 done)

CP-SCF equations solved in 891.9 sec
Response densities calculated in   0.0 sec

Maximum memory used throughout the entire SCFRESP-calculation: 586.0 MB

------------------------------------------------------------------------------
                              ORCA PROPERTY CALCULATIONS
------------------------------------------------------------------------------

GBWName                                 ... opt.gbw
Number of atoms                         ...     30
Number of basis functions               ...    332
Max core memory                         ...   1024 MB

Electric properties:
Dipole moment                           ... YES
Quadrupole moment                       ...  NO
Static polarizability (Dipole/Dipole)   ...  NO
Static polarizability (Dipole/Quad.)    ...  NO
Static polarizability (Quad./Quad.)     ...  NO
Static polarizability (Velocity)        ...  NO

Atomic electric properties:
Dipole moment                           ...  NO
Quadrupole moment                       ...  NO
Static polarizability                   ...  NO

Choice of electric origin               ... Center of mass
Position of electric origin             ...    -0.365773     0.205259    -0.068264

General magnetic properties:
Magnetizability                         ...  NO

EPR properties:
g-Tensor (aka g-matrix)                 ...  NO
Zero-Field splitting spin-orbit         ...  NO
Zero-field splitting spin-spin          ...  NO
Hyperfine couplings                     ...  NO (   0 nuclei)
Quadrupole couplings                    ...  NO (   0 nuclei)
Contact density                         ...  NO (   0 nuclei)

NMR properties:
Chemical shifts                         ...  NO (   0 nuclei)
Spin-rotation constants                 ...  NO (   0 nuclei)
Spin-spin couplings                     ...  NO (   0 nuclei,    0 pairs)

Choice of magnetic origin               ... GIAO
Position of magnetic origin             ...     0.000000     0.000000     0.000000

Properties with geometric perturbations:
SCF Hessian                             ... YES
IR spectrum                             ... YES
VCD spectrum                            ...  NO
X-ray spectroscopy properties:
SCF XES/XAS/RIXS spectra                ...  NO


-------------
DIPOLE MOMENT
-------------

Method             : SCF
Type of density    : Electron Density
Multiplicity       :   1
Irrep              :   0
Energy             :  -691.1866238951657806 Eh
Relativity type    : 
Basis              : AO
                                X                 Y                 Z
Electronic contribution:     -5.094521205       2.439518862      -0.778401126
Nuclear contribution   :      5.082257235      -3.007558156       1.051762718
                        -----------------------------------------
Total Dipole Moment    :     -0.012263970      -0.568039294       0.273361593
                        -----------------------------------------
Magnitude (a.u.)       :      0.630512177
Magnitude (Debye)      :      1.602634591



--------------------
Rotational spectrum 
--------------------
 
Rotational constants in cm-1:             0.030085             0.027155             0.023581 
Rotational constants in MHz :           901.928259           814.099935           706.927229 

Dipole components along the rotational axes: 
x,y,z [a.u.] :    -0.206125     0.558423     0.207898 
x,y,z [Debye]:    -0.523927     1.419399     0.528436 

 

Dipole moment calculation done in   0.0 sec 

-----------
SCF HESSIAN
-----------

Occupied/Occupied contributions to the Hessian:
   => Occupied/Occupied contributions              ... done (  0.0 sec)
Perturbed density contributions to the Hessian:
   => Perturbed density contributions              ... done (  0.1 sec)
Explicit contributions to the Hessian:
   => Nuclear repulsion Hessian                    ... done (  0.0 sec)
   => HCore and overlap Hessian                    ... done ( 26.2 sec)
   => RI-J Hessian                                 ... done ( 23.1 sec)
   => COSX Hessian                                 ... done (3826.5 sec)
   => XC-Hessian                                   ... 
ORCA finished by error termination in PROPERTIES
Calling Command: /Users/rr/ORCA/orca_6_0_0_macosx_openmpi411/orca_prop opt.propinp.tmp opt 1 
[file orca_tools/qcmsg.cpp, line 394]: 
  .... aborting the run

