
     Program PWSCF v.7.1 starts on 22Jan2026 at 17:51:20 

     This program is part of the open-source Quantum ESPRESSO suite
     for quantum simulation of materials; please cite
         "P. Giannozzi et al., J. Phys.:Condens. Matter 21 395502 (2009);
         "P. Giannozzi et al., J. Phys.:Condens. Matter 29 465901 (2017);
         "P. Giannozzi et al., J. Chem. Phys. 152 154105 (2020);
          URL http://www.quantum-espresso.org", 
     in publications or presentations arising from this work. More details at
     http://www.quantum-espresso.org/quote

     Parallel version (MPI), running on   128 processors

     MPI processes distributed on     1 nodes
     248066 MiB available memory on the printing compute node when the environment starts
 
     Waiting for input...
     Reading input from standard input

     Current dimensions of program PWSCF are:
     Max number of different atomic species (ntypx) = 10
     Max number of k-points (npk) =  40000
     Max angular momentum in pseudopotentials (lmaxx) =  4
 
     Message from routine set_vdw_corr:
     WARNING: unknown vdw correction (vdw_corr): mdb. No vdw correction used.
 
     file C.pbe-n-kjpaw_psl.0.1.UPF: wavefunction(s)  2P renormalized
     file N.pbe-n-kjpaw_psl.0.1.UPF: wavefunction(s)  2P renormalized

     IMPORTANT: XC functional enforced from input :
     Exchange-correlation= PBE
                           (   1   4   3   4   0   0   0)
     Any further DFT definition will be discarded
     Please, verify this is what you really want

     Message from routine setup:
     using ibrav=0 with symmetry is DISCOURAGED, use correct ibrav instead
 
     K-points division:     npool     =       8
     R & G space division:  proc/nbgrp/npool/nimage =      16
     Subspace diagonalization in iterative solution of the eigenvalue problem:
     a serial algorithm will be used

 
     Parallelization info
     --------------------
     sticks:   dense  smooth     PW     G-vecs:    dense   smooth      PW
     Min         524     524    146                 9339     9339    1392
     Max         525     525    147                 9340     9340    1393
     Sum        8393    8393   2343               149425   149425   22287
 
     Using Slab Decomposition
 


     bravais-lattice index     =            0
     lattice parameter (alat)  =      22.5595  a.u.
     unit-cell volume          =    3127.0855 (a.u.)^3
     number of atoms/cell      =           48
     number of atomic types    =            4
     number of electrons       =       168.00
     number of Kohn-Sham states=           84
     kinetic-energy cutoff     =      50.0000  Ry
     charge density cutoff     =     200.0000  Ry
     scf convergence threshold =      1.0E-10
     mixing beta               =       0.7000
     number of iterations used =            8  plain     mixing
     energy convergence thresh.=      1.0E-04
     force convergence thresh. =      1.0E-03
     press convergence thresh. =      5.0E-01
     Exchange-correlation= PBE
                           (   1   4   3   4   0   0   0)
     nstep                     =           50


     celldm(1)=  22.559550  celldm(2)=   0.000000  celldm(3)=   0.000000
     celldm(4)=   0.000000  celldm(5)=   0.000000  celldm(6)=   0.000000

     crystal axes: (cart. coord. in units of alat)
               a(1) = (   1.000000   0.000000   0.000000 )  
               a(2) = (   0.000000   1.036690   0.000000 )  
               a(3) = (  -0.157237   0.000000   0.262724 )  

     reciprocal axes: (cart. coord. in units 2 pi/alat)
               b(1) = (  1.000000  0.000000  0.598488 )  
               b(2) = (  0.000000  0.964609  0.000000 )  
               b(3) = (  0.000000  0.000000  3.806276 )  


     PseudoPot. # 1 for C  read from file:
     /usr/share/espresso/pseudo/C.pbe-n-kjpaw_psl.0.1.UPF
     MD5 check sum: 0cb641972fb3ec3bdffe56284d45d2bb
     Pseudo is Projector augmented-wave + core cor, Zval =  4.0
     Generated using &quot;atomic&quot; code by A. Dal Corso  v.5.0.2 svn rev. 9415
     Shape of augmentation charge: BESSEL
     Using radial grid of 1073 points,  4 beta functions with: 
                l(1) =   0
                l(2) =   0
                l(3) =   1
                l(4) =   1
     Q(r) pseudized with 0 coefficients 


     PseudoPot. # 2 for H  read from file:
     /usr/share/espresso/pseudo/H.pbe-kjpaw.UPF
     MD5 check sum: a225a3f3a1be5237eb8f6a7e61cbb4ee
     Pseudo is Projector augmented-wave, Zval =  1.0
     Generated using "atomic" code by A. Dal Corso (espresso distribution)
     Shape of augmentation charge: PSQ
     Using radial grid of  929 points,  2 beta functions with: 
                l(1) =   0
                l(2) =   0
     Q(r) pseudized with 0 coefficients 


     PseudoPot. # 3 for N  read from file:
     /usr/share/espresso/pseudo/N.pbe-n-kjpaw_psl.0.1.UPF
     MD5 check sum: 5f964142c164ed943b244cf6ba502af7
     Pseudo is Projector augmented-wave + core cor, Zval =  5.0
     Generated using &quot;atomic&quot; code by A. Dal Corso  v.6.3
     Shape of augmentation charge: PSQ
     Using radial grid of 1085 points,  4 beta functions with: 
                l(1) =   0
                l(2) =   0
                l(3) =   1
                l(4) =   1
     Q(r) pseudized with 0 coefficients 


     PseudoPot. # 4 for O  read from file:
     /usr/share/espresso/pseudo/O.pbe-kjpaw.UPF
     MD5 check sum: c7f41d994d4e90c1781f5cd713c45011
     Pseudo is Projector augmented-wave + core cor, Zval =  6.0
     Generated using "atomic" code by A. Dal Corso (espresso distribution)
     Shape of augmentation charge: BESSEL
     Using radial grid of 1095 points,  4 beta functions with: 
                l(1) =   0
                l(2) =   0
                l(3) =   1
                l(4) =   1
     Q(r) pseudized with 0 coefficients 


     atomic species   valence    mass     pseudopotential
        C              4.00    12.00000     C ( 1.00)
        H              1.00     1.00783     H ( 1.00)
        N              5.00    14.00307     N ( 1.00)
        O              6.00    15.99491     O ( 1.00)

      4 Sym. Ops., with inversion, found ( 2 have fractional translation)


                                    s                        frac. trans.

      isym =  1     identity                                     

 cryst.   s( 1) = (     1          0          0      )
                  (     0          1          0      )
                  (     0          0          1      )

 cart.    s( 1) = (  1.0000000  0.0000000  0.0000000 )
                  (  0.0000000  1.0000000  0.0000000 )
                  (  0.0000000  0.0000000  1.0000000 )


      isym =  2     180 deg rotation - cart. axis [0,1,0]        

 cryst.   s( 2) = (    -1          0          0      )    f =(  0.5000000 )
                  (     0          1          0      )       (  0.5000000 )
                  (     0          0         -1      )       (  0.0000000 )

 cart.    s( 2) = ( -1.0000000  0.0000000  0.0000000 )    f =(  0.5000000 )
                  (  0.0000000  1.0000000  0.0000000 )       (  0.5183448 )
                  (  0.0000000  0.0000000 -1.0000000 )       (  0.0000000 )


      isym =  3     inversion                                    

 cryst.   s( 3) = (    -1          0          0      )
                  (     0         -1          0      )
                  (     0          0         -1      )

 cart.    s( 3) = ( -1.0000000  0.0000000  0.0000000 )
                  (  0.0000000 -1.0000000  0.0000000 )
                  (  0.0000000  0.0000000 -1.0000000 )


      isym =  4     inv. 180 deg rotation - cart. axis [0,1,0]   

 cryst.   s( 4) = (     1          0          0      )    f =( -0.5000000 )
                  (     0         -1          0      )       (  0.5000000 )
                  (     0          0          1      )       (  0.0000000 )

 cart.    s( 4) = (  1.0000000  0.0000000  0.0000000 )    f =( -0.5000000 )
                  (  0.0000000 -1.0000000  0.0000000 )       (  0.5183448 )
                  (  0.0000000  0.0000000  1.0000000 )       (  0.0000000 )


   Cartesian axes

     site n.     atom                  positions (alat units)
         1           C   tau(   1) = (   0.1504744   0.2170102   0.0023987  )
         2           C   tau(   2) = (   0.6922885   0.8196794   0.2603253  )
         3           C   tau(   3) = (   0.1922885   0.7353550   0.2603253  )
         4           C   tau(   4) = (   0.6504744   0.3013346   0.0023987  )
         5           C   tau(   5) = (   0.1743861   0.0128239   0.0091796  )
         6           C   tau(   6) = (   0.6683768   1.0238658   0.2535444  )
         7           C   tau(   7) = (   0.1683768   0.5311687   0.2535444  )
         8           C   tau(   8) = (   0.6743861   0.5055210   0.0091796  )
         9           C   tau(   9) = (   0.2923076   0.0296182   0.0215250  )
        10           C   tau(  10) = (   0.5504554   1.0070714   0.2411990  )
        11           C   tau(  11) = (   0.0504554   0.5479630   0.2411990  )
        12           C   tau(  12) = (   0.7923076   0.4887266   0.0215250  )
        13           C   tau(  13) = (   0.3321980   0.1345312   0.0233956  )
        14           C   tau(  14) = (   0.5105649   0.9021584   0.2393284  )
        15           C   tau(  15) = (   0.0105649   0.6528760   0.2393284  )
        16           C   tau(  16) = (   0.8321980   0.3838136   0.0233956  )
        17           H   tau(  17) = (   0.4102894   0.1517714   0.0294251  )
        18           H   tau(  18) = (   0.4324735   0.8849183   0.2332989  )
        19           H   tau(  19) = (  -0.0675265   0.6701162   0.2332989  )
        20           H   tau(  20) = (   0.9102894   0.3665734   0.0294251  )
        21           H   tau(  21) = (   0.2898589   0.2906878   0.0109293  )
        22           H   tau(  22) = (   0.5529040   0.7460019   0.2517947  )
        23           H   tau(  23) = (   0.0529040   0.8090326   0.2517947  )
        24           H   tau(  24) = (   0.7898589   0.2276570   0.0109293  )
        25           H   tau(  25) = (  -0.1179055   0.0981745   0.2543168  )
        26           H   tau(  26) = (   0.9606684   0.9385151   0.0084072  )
        27           H   tau(  27) = (   0.4606684   0.6165193   0.0084072  )
        28           H   tau(  28) = (   0.3820945   0.4201703   0.2543168  )
        29           H   tau(  29) = (   0.3380964   1.0033082   0.0259046  )
        30           H   tau(  30) = (   0.5046665   0.0333814   0.2368194  )
        31           H   tau(  31) = (   0.0046665   0.4849634   0.2368194  )
        32           H   tau(  32) = (   0.8380964   0.5517262   0.0259046  )
        33           N   tau(  33) = (   0.2644398   0.2254800   0.0140190  )
        34           N   tau(  34) = (   0.5783231   0.8112096   0.2487050  )
        35           N   tau(  35) = (   0.0783231   0.7438248   0.2487050  )
        36           N   tau(  36) = (   0.7644398   0.2928648   0.0140190  )
        37           N   tau(  37) = (   0.1114416   0.1085207   0.0010667  )
        38           N   tau(  38) = (   0.7313213   0.9281690   0.2616573  )
        39           N   tau(  39) = (   0.2313213   0.6268655   0.2616573  )
        40           N   tau(  40) = (   0.6114416   0.4098241   0.0010667  )
        41           O   tau(  41) = (  -0.0688503   0.2972915   0.2570150  )
        42           O   tau(  42) = (   0.9116132   0.7393981   0.0057090  )
        43           O   tau(  43) = (   0.4116132   0.8156363   0.0057090  )
        44           O   tau(  44) = (   0.4311497   0.2210533   0.2570150  )
        45           O   tau(  45) = (   0.1267850   0.9568023   0.0051546  )
        46           O   tau(  46) = (   0.7159779   0.0798873   0.2575693  )
        47           O   tau(  47) = (   0.2159779   0.4384575   0.2575693  )
        48           O   tau(  48) = (   0.6267850   0.5982321   0.0051546  )

   Crystallographic axes

     site n.     atom                  positions (cryst. coord.)
         1           C   tau(   1) = (  0.1519100  0.2093300  0.0091300  )
         2           C   tau(   2) = (  0.8480900  0.7906700  0.9908700  )
         3           C   tau(   3) = (  0.3480900  0.7093300  0.9908700  )
         4           C   tau(   4) = (  0.6519100  0.2906700  0.0091300  )
         5           C   tau(   5) = (  0.1798800  0.0123700  0.0349400  )
         6           C   tau(   6) = (  0.8201200  0.9876300  0.9650600  )
         7           C   tau(   7) = (  0.3201200  0.5123700  0.9650600  )
         8           C   tau(   8) = (  0.6798800  0.4876300  0.0349400  )
         9           C   tau(   9) = (  0.3051900  0.0285700  0.0819300  )
        10           C   tau(  10) = (  0.6948100  0.9714300  0.9180700  )
        11           C   tau(  11) = (  0.1948100  0.5285700  0.9180700  )
        12           C   tau(  12) = (  0.8051900  0.4714300  0.0819300  )
        13           C   tau(  13) = (  0.3462000  0.1297700  0.0890500  )
        14           C   tau(  14) = (  0.6538000  0.8702300  0.9109500  )
        15           C   tau(  15) = (  0.1538000  0.6297700  0.9109500  )
        16           C   tau(  16) = (  0.8462000  0.3702300  0.0890500  )
        17           H   tau(  17) = (  0.4279000  0.1464000  0.1120000  )
        18           H   tau(  18) = (  0.5721000  0.8536000  0.8880000  )
        19           H   tau(  19) = (  0.0721000  0.6464000  0.8880000  )
        20           H   tau(  20) = (  0.9279000  0.3536000  0.1120000  )
        21           H   tau(  21) = (  0.2964000  0.2804000  0.0416000  )
        22           H   tau(  22) = (  0.7036000  0.7196000  0.9584000  )
        23           H   tau(  23) = (  0.2036000  0.7804000  0.9584000  )
        24           H   tau(  24) = (  0.7964000  0.2196000  0.0416000  )
        25           H   tau(  25) = (  0.0343000  0.0947000  0.9680000  )
        26           H   tau(  26) = (  0.9657000  0.9053000  0.0320000  )
        27           H   tau(  27) = (  0.4657000  0.5947000  0.0320000  )
        28           H   tau(  28) = (  0.5343000  0.4053000  0.9680000  )
        29           H   tau(  29) = (  0.3536000  0.9678000  0.0986000  )
        30           H   tau(  30) = (  0.6464000  0.0322000  0.9014000  )
        31           H   tau(  31) = (  0.1464000  0.4678000  0.9014000  )
        32           H   tau(  32) = (  0.8536000  0.5322000  0.0986000  )
        33           N   tau(  33) = (  0.2728300  0.2175000  0.0533600  )
        34           N   tau(  34) = (  0.7271700  0.7825000  0.9466400  )
        35           N   tau(  35) = (  0.2271700  0.7175000  0.9466400  )
        36           N   tau(  36) = (  0.7728300  0.2825000  0.0533600  )
        37           N   tau(  37) = (  0.1120800  0.1046800  0.0040600  )
        38           N   tau(  38) = (  0.8879200  0.8953200  0.9959400  )
        39           N   tau(  39) = (  0.3879200  0.6046800  0.9959400  )
        40           N   tau(  40) = (  0.6120800  0.3953200  0.0040600  )
        41           O   tau(  41) = (  0.0849700  0.2867700  0.9782700  )
        42           O   tau(  42) = (  0.9150300  0.7132300  0.0217300  )
        43           O   tau(  43) = (  0.4150300  0.7867700  0.0217300  )
        44           O   tau(  44) = (  0.5849700  0.2132300  0.9782700  )
        45           O   tau(  45) = (  0.1298700  0.9229400  0.0196200  )
        46           O   tau(  46) = (  0.8701300  0.0770600  0.9803800  )
        47           O   tau(  47) = (  0.3701300  0.4229400  0.9803800  )
        48           O   tau(  48) = (  0.6298700  0.5770600  0.0196200  )

     number of k points=    10
                       cart. coord. in units 2pi/alat
        k(    1) = (   0.0000000   0.0000000   0.0000000), wk =   0.0740741
        k(    2) = (   0.0000000   0.0000000   1.2687587), wk =   0.1481481
        k(    3) = (   0.0000000   0.3215363   0.0000000), wk =   0.1481481
        k(    4) = (   0.0000000   0.3215363   1.2687587), wk =   0.2962963
        k(    5) = (   0.3333333   0.0000000   0.1994959), wk =   0.1481481
        k(    6) = (   0.3333333   0.0000000   1.4682546), wk =   0.1481481
        k(    7) = (   0.3333333   0.0000000  -1.0692628), wk =   0.1481481
        k(    8) = (   0.3333333   0.3215363   0.1994959), wk =   0.2962963
        k(    9) = (   0.3333333   0.3215363   1.4682546), wk =   0.2962963
        k(   10) = (   0.3333333   0.3215363  -1.0692628), wk =   0.2962963

                       cryst. coord.
        k(    1) = (   0.0000000   0.0000000   0.0000000), wk =   0.0740741
        k(    2) = (   0.0000000   0.0000000   0.3333333), wk =   0.1481481
        k(    3) = (   0.0000000   0.3333333   0.0000000), wk =   0.1481481
        k(    4) = (   0.0000000   0.3333333   0.3333333), wk =   0.2962963
        k(    5) = (   0.3333333   0.0000000  -0.0000000), wk =   0.1481481
        k(    6) = (   0.3333333   0.0000000   0.3333333), wk =   0.1481481
        k(    7) = (   0.3333333   0.0000000  -0.3333333), wk =   0.1481481
        k(    8) = (   0.3333333   0.3333333  -0.0000000), wk =   0.2962963
        k(    9) = (   0.3333333   0.3333333   0.3333333), wk =   0.2962963
        k(   10) = (   0.3333333   0.3333333  -0.3333333), wk =   0.2962963

     Dense  grid:   149425 G-vectors     FFT dimensions: ( 108, 108,  32)

     Dynamical RAM for                 wfc:       1.49 MB

     Dynamical RAM for     wfc (w. buffer):       4.48 MB

     Dynamical RAM for           str. fact:       0.57 MB

     Dynamical RAM for           local pot:       0.00 MB

     Dynamical RAM for          nlocal pot:       5.12 MB

     Dynamical RAM for                qrad:       2.60 MB

     Dynamical RAM for          rho,v,vnew:       0.96 MB

     Dynamical RAM for               rhoin:       0.32 MB

     Dynamical RAM for            rho*nmix:       2.28 MB

     Dynamical RAM for           G-vectors:       0.61 MB

     Dynamical RAM for          h,s,v(r/c):       1.29 MB

     Dynamical RAM for          <psi|beta>:       0.37 MB

     Dynamical RAM for                 psi:       2.99 MB

     Dynamical RAM for                hpsi:       2.99 MB

     Dynamical RAM for                spsi:       2.99 MB

     Dynamical RAM for      wfcinit/wfcrot:       5.60 MB

     Dynamical RAM for           addusdens:       1.18 MB

     Dynamical RAM for          addusforce:       1.67 MB

     Dynamical RAM for         addusstress:       0.95 MB

     Estimated static dynamical RAM per process >      16.26 MB

     Estimated max dynamical RAM per process >      29.17 MB

     Estimated total dynamical RAM >       3.40 GB

     Check: negative core charge=   -0.000007

     Initial potential from superposition of free atoms

     starting charge     167.9992, renormalised to     168.0000
     Starting wfcs are  144 randomized atomic wfcs
     Checking if some PAW data can be deallocated... 
       PAW data deallocated on   80 nodes for type:  1
       PAW data deallocated on   80 nodes for type:  2
       PAW data deallocated on  112 nodes for type:  3
       PAW data deallocated on  112 nodes for type:  4

     total cpu time spent up to now is        1.5 secs

     Self-consistent Calculation

     iteration #  1     ecut=    50.00 Ry     beta= 0.70
     Davidson diagonalization with overlap

---- Real-time Memory Report at c_bands before calling an iterative solver
            99 MiB given to the printing process from OS
             0 MiB allocation reported by mallinfo(arena+hblkhd)
        243792 MiB available memory on the node where the printing process lives
------------------
     ethr =  1.00E-04,  avg # of iterations = 15.1

     total cpu time spent up to now is        6.4 secs

     total energy              =    -870.26954332 Ry
     estimated scf accuracy    <       6.54829672 Ry

     iteration #  2     ecut=    50.00 Ry     beta= 0.70
     Davidson diagonalization with overlap

---- Real-time Memory Report at c_bands before calling an iterative solver
           113 MiB given to the printing process from OS
             0 MiB allocation reported by mallinfo(arena+hblkhd)
        242858 MiB available memory on the node where the printing process lives
------------------
     ethr =  3.90E-03,  avg # of iterations =  3.5

     total cpu time spent up to now is        7.7 secs

     total energy              =    -871.75261812 Ry
     estimated scf accuracy    <       0.66944713 Ry

     iteration #  3     ecut=    50.00 Ry     beta= 0.70
     Davidson diagonalization with overlap

---- Real-time Memory Report at c_bands before calling an iterative solver
           117 MiB given to the printing process from OS
             0 MiB allocation reported by mallinfo(arena+hblkhd)
        242614 MiB available memory on the node where the printing process lives
------------------
     ethr =  3.98E-04,  avg # of iterations = 10.7

     total cpu time spent up to now is        9.9 secs

     total energy              =    -872.14385340 Ry
     estimated scf accuracy    <       0.49268498 Ry

     iteration #  4     ecut=    50.00 Ry     beta= 0.70
     Davidson diagonalization with overlap

---- Real-time Memory Report at c_bands before calling an iterative solver
           120 MiB given to the printing process from OS
             0 MiB allocation reported by mallinfo(arena+hblkhd)
        242403 MiB available memory on the node where the printing process lives
------------------
     ethr =  2.93E-04,  avg # of iterations =  2.0

     total cpu time spent up to now is       10.8 secs

     total energy              =    -872.05179175 Ry
     estimated scf accuracy    <       0.15662457 Ry

     iteration #  5     ecut=    50.00 Ry     beta= 0.70
     Davidson diagonalization with overlap

---- Real-time Memory Report at c_bands before calling an iterative solver
           123 MiB given to the printing process from OS
             0 MiB allocation reported by mallinfo(arena+hblkhd)
        242299 MiB available memory on the node where the printing process lives
------------------
     ethr =  9.32E-05,  avg # of iterations = 13.9

     total cpu time spent up to now is       13.8 secs

     total energy              =    -872.22844002 Ry
     estimated scf accuracy    <       0.57774649 Ry

     iteration #  6     ecut=    50.00 Ry     beta= 0.70
     Davidson diagonalization with overlap

---- Real-time Memory Report at c_bands before calling an iterative solver
           128 MiB given to the printing process from OS
             0 MiB allocation reported by mallinfo(arena+hblkhd)
        241995 MiB available memory on the node where the printing process lives
------------------
     ethr =  9.32E-05,  avg # of iterations =  2.0

     total cpu time spent up to now is       14.7 secs

     total energy              =    -872.01780335 Ry
     estimated scf accuracy    <       0.31321163 Ry

     iteration #  7     ecut=    50.00 Ry     beta= 0.70
     Davidson diagonalization with overlap

---- Real-time Memory Report at c_bands before calling an iterative solver
           129 MiB given to the printing process from OS
             0 MiB allocation reported by mallinfo(arena+hblkhd)
        241879 MiB available memory on the node where the printing process lives
------------------
     ethr =  9.32E-05,  avg # of iterations = 13.7

     total cpu time spent up to now is       17.3 secs

     total energy              =    -872.17495188 Ry
     estimated scf accuracy    <       0.19411828 Ry

     iteration #  8     ecut=    50.00 Ry     beta= 0.70
     Davidson diagonalization with overlap

---- Real-time Memory Report at c_bands before calling an iterative solver
           132 MiB given to the printing process from OS
             0 MiB allocation reported by mallinfo(arena+hblkhd)
        241648 MiB available memory on the node where the printing process lives
------------------
     ethr =  9.32E-05,  avg # of iterations =  2.5

     total cpu time spent up to now is       18.2 secs

     total energy              =    -872.13671688 Ry
     estimated scf accuracy    <       0.06588367 Ry

     iteration #  9     ecut=    50.00 Ry     beta= 0.70
     Davidson diagonalization with overlap

---- Real-time Memory Report at c_bands before calling an iterative solver
           135 MiB given to the printing process from OS
             0 MiB allocation reported by mallinfo(arena+hblkhd)
        241540 MiB available memory on the node where the printing process lives
------------------
     ethr =  3.92E-05,  avg # of iterations = 13.7

     total cpu time spent up to now is       20.6 secs

     total energy              =    -872.21605814 Ry
     estimated scf accuracy    <       0.09958068 Ry

     iteration # 10     ecut=    50.00 Ry     beta= 0.70
     Davidson diagonalization with overlap

---- Real-time Memory Report at c_bands before calling an iterative solver
           135 MiB given to the printing process from OS
             0 MiB allocation reported by mallinfo(arena+hblkhd)
        241370 MiB available memory on the node where the printing process lives
------------------
     ethr =  3.92E-05,  avg # of iterations =  1.1

     total cpu time spent up to now is       21.4 secs

     total energy              =    -872.17289864 Ry
     estimated scf accuracy    <       0.07909287 Ry

     iteration # 11     ecut=    50.00 Ry     beta= 0.70
     Davidson diagonalization with overlap

---- Real-time Memory Report at c_bands before calling an iterative solver
           136 MiB given to the printing process from OS
             0 MiB allocation reported by mallinfo(arena+hblkhd)
        241298 MiB available memory on the node where the printing process lives
------------------
     ethr =  3.92E-05,  avg # of iterations =  9.1

     total cpu time spent up to now is       23.0 secs

     total energy              =    -872.19504139 Ry
     estimated scf accuracy    <       0.00101757 Ry

     iteration # 12     ecut=    50.00 Ry     beta= 0.70
     Davidson diagonalization with overlap

---- Real-time Memory Report at c_bands before calling an iterative solver
           136 MiB given to the printing process from OS
             0 MiB allocation reported by mallinfo(arena+hblkhd)
        241221 MiB available memory on the node where the printing process lives
------------------
     ethr =  6.06E-07,  avg # of iterations = 13.5

     total cpu time spent up to now is       26.7 secs

     total energy              =    -872.20225925 Ry
     estimated scf accuracy    <       0.01056149 Ry

     iteration # 13     ecut=    50.00 Ry     beta= 0.70
     Davidson diagonalization with overlap

---- Real-time Memory Report at c_bands before calling an iterative solver
           136 MiB given to the printing process from OS
             0 MiB allocation reported by mallinfo(arena+hblkhd)
        240985 MiB available memory on the node where the printing process lives
------------------
     ethr =  6.06E-07,  avg # of iterations =  2.0

     total cpu time spent up to now is       27.7 secs

     total energy              =    -872.20106757 Ry
     estimated scf accuracy    <       0.01150340 Ry

     iteration # 14     ecut=    50.00 Ry     beta= 0.70
     Davidson diagonalization with overlap

---- Real-time Memory Report at c_bands before calling an iterative solver
           136 MiB given to the printing process from OS
             0 MiB allocation reported by mallinfo(arena+hblkhd)
        240911 MiB available memory on the node where the printing process lives
------------------
     ethr =  6.06E-07,  avg # of iterations =  1.3

     total cpu time spent up to now is       28.6 secs

     total energy              =    -872.19774997 Ry
     estimated scf accuracy    <       0.00967689 Ry

     iteration # 15     ecut=    50.00 Ry     beta= 0.70
     Davidson diagonalization with overlap

---- Real-time Memory Report at c_bands before calling an iterative solver
           136 MiB given to the printing process from OS
             0 MiB allocation reported by mallinfo(arena+hblkhd)
        240848 MiB available memory on the node where the printing process lives
------------------
     ethr =  6.06E-07,  avg # of iterations = 12.2

     total cpu time spent up to now is       30.8 secs

     total energy              =    -872.19873570 Ry
     estimated scf accuracy    <       0.00128879 Ry

     iteration # 16     ecut=    50.00 Ry     beta= 0.70
     Davidson diagonalization with overlap

---- Real-time Memory Report at c_bands before calling an iterative solver
           136 MiB given to the printing process from OS
             0 MiB allocation reported by mallinfo(arena+hblkhd)
        240712 MiB available memory on the node where the printing process lives
------------------
     ethr =  6.06E-07,  avg # of iterations =  1.8

     total cpu time spent up to now is       31.7 secs

     total energy              =    -872.19850621 Ry
     estimated scf accuracy    <       0.00111367 Ry

     iteration # 17     ecut=    50.00 Ry     beta= 0.70
     Davidson diagonalization with overlap

---- Real-time Memory Report at c_bands before calling an iterative solver
           136 MiB given to the printing process from OS
             0 MiB allocation reported by mallinfo(arena+hblkhd)
        240641 MiB available memory on the node where the printing process lives
------------------
     ethr =  6.06E-07,  avg # of iterations =  3.0

     total cpu time spent up to now is       32.8 secs

     total energy              =    -872.19849816 Ry
     estimated scf accuracy    <       0.00050997 Ry

     iteration # 18     ecut=    50.00 Ry     beta= 0.70
     Davidson diagonalization with overlap

---- Real-time Memory Report at c_bands before calling an iterative solver
           136 MiB given to the printing process from OS
             0 MiB allocation reported by mallinfo(arena+hblkhd)
        240587 MiB available memory on the node where the printing process lives
------------------
     ethr =  3.04E-07,  avg # of iterations =  8.4

     total cpu time spent up to now is       34.2 secs

     total energy              =    -872.19864261 Ry
     estimated scf accuracy    <       0.00013659 Ry

     iteration # 19     ecut=    50.00 Ry     beta= 0.70
     Davidson diagonalization with overlap

---- Real-time Memory Report at c_bands before calling an iterative solver
           136 MiB given to the printing process from OS
             0 MiB allocation reported by mallinfo(arena+hblkhd)
        240495 MiB available memory on the node where the printing process lives
------------------
     ethr =  8.13E-08,  avg # of iterations =  4.9

     total cpu time spent up to now is       35.6 secs

     total energy              =    -872.19870386 Ry
     estimated scf accuracy    <       0.00014230 Ry

     iteration # 20     ecut=    50.00 Ry     beta= 0.70
     Davidson diagonalization with overlap

---- Real-time Memory Report at c_bands before calling an iterative solver
           136 MiB given to the printing process from OS
             0 MiB allocation reported by mallinfo(arena+hblkhd)
        240400 MiB available memory on the node where the printing process lives
------------------
     ethr =  8.13E-08,  avg # of iterations = 11.0

     total cpu time spent up to now is       37.6 secs

     total energy              =    -872.19859830 Ry
     estimated scf accuracy    <       0.00056198 Ry

     iteration # 21     ecut=    50.00 Ry     beta= 0.70
     Davidson diagonalization with overlap

---- Real-time Memory Report at c_bands before calling an iterative solver
           136 MiB given to the printing process from OS
             0 MiB allocation reported by mallinfo(arena+hblkhd)
        240297 MiB available memory on the node where the printing process lives
------------------
     ethr =  8.13E-08,  avg # of iterations =  8.6

     total cpu time spent up to now is       39.2 secs

     total energy              =    -872.19859207 Ry
     estimated scf accuracy    <       0.00009254 Ry

     iteration # 22     ecut=    50.00 Ry     beta= 0.70
     Davidson diagonalization with overlap

---- Real-time Memory Report at c_bands before calling an iterative solver
           136 MiB given to the printing process from OS
             0 MiB allocation reported by mallinfo(arena+hblkhd)
        240297 MiB available memory on the node where the printing process lives
------------------
     ethr =  5.51E-08,  avg # of iterations = 10.0

     total cpu time spent up to now is       41.1 secs

     total energy              =    -872.19864932 Ry
     estimated scf accuracy    <       0.00002724 Ry

     iteration # 23     ecut=    50.00 Ry     beta= 0.70
     Davidson diagonalization with overlap

---- Real-time Memory Report at c_bands before calling an iterative solver
           136 MiB given to the printing process from OS
             0 MiB allocation reported by mallinfo(arena+hblkhd)
        240301 MiB available memory on the node where the printing process lives
------------------
     ethr =  1.62E-08,  avg # of iterations =  8.6

     total cpu time spent up to now is       42.7 secs

     total energy              =    -872.19865644 Ry
     estimated scf accuracy    <       0.00005814 Ry

     iteration # 24     ecut=    50.00 Ry     beta= 0.70
     Davidson diagonalization with overlap

---- Real-time Memory Report at c_bands before calling an iterative solver
           136 MiB given to the printing process from OS
             0 MiB allocation reported by mallinfo(arena+hblkhd)
        240323 MiB available memory on the node where the printing process lives
------------------
     ethr =  1.62E-08,  avg # of iterations =  1.7

     total cpu time spent up to now is       43.6 secs

     total energy              =    -872.19863902 Ry
     estimated scf accuracy    <       0.00005778 Ry

     iteration # 25     ecut=    50.00 Ry     beta= 0.70
     Davidson diagonalization with overlap

---- Real-time Memory Report at c_bands before calling an iterative solver
           138 MiB given to the printing process from OS
             0 MiB allocation reported by mallinfo(arena+hblkhd)
        240301 MiB available memory on the node where the printing process lives
------------------
     ethr =  1.62E-08,  avg # of iterations =  2.0

     total cpu time spent up to now is       44.5 secs

     total energy              =    -872.19862484 Ry
     estimated scf accuracy    <       0.00002930 Ry

     iteration # 26     ecut=    50.00 Ry     beta= 0.70
     Davidson diagonalization with overlap

---- Real-time Memory Report at c_bands before calling an iterative solver
           138 MiB given to the printing process from OS
             0 MiB allocation reported by mallinfo(arena+hblkhd)
        240304 MiB available memory on the node where the printing process lives
------------------
     ethr =  1.62E-08,  avg # of iterations =  8.7

     total cpu time spent up to now is       46.2 secs

     total energy              =    -872.19863806 Ry
     estimated scf accuracy    <       0.00000180 Ry

     iteration # 27     ecut=    50.00 Ry     beta= 0.70
     Davidson diagonalization with overlap

---- Real-time Memory Report at c_bands before calling an iterative solver
           138 MiB given to the printing process from OS
             0 MiB allocation reported by mallinfo(arena+hblkhd)
        240309 MiB available memory on the node where the printing process lives
------------------
     ethr =  1.07E-09,  avg # of iterations = 11.5

     total cpu time spent up to now is       48.8 secs

     total energy              =    -872.19863842 Ry
     estimated scf accuracy    <       0.00000663 Ry

     iteration # 28     ecut=    50.00 Ry     beta= 0.70
     Davidson diagonalization with overlap

---- Real-time Memory Report at c_bands before calling an iterative solver
           138 MiB given to the printing process from OS
             0 MiB allocation reported by mallinfo(arena+hblkhd)
        240315 MiB available memory on the node where the printing process lives
------------------
     ethr =  1.07E-09,  avg # of iterations =  5.9

     total cpu time spent up to now is       50.0 secs

     total energy              =    -872.19863764 Ry
     estimated scf accuracy    <       0.00000193 Ry

     iteration # 29     ecut=    50.00 Ry     beta= 0.70
     Davidson diagonalization with overlap

---- Real-time Memory Report at c_bands before calling an iterative solver
           138 MiB given to the printing process from OS
             0 MiB allocation reported by mallinfo(arena+hblkhd)
        240304 MiB available memory on the node where the printing process lives
------------------
     ethr =  1.07E-09,  avg # of iterations =  9.5

     total cpu time spent up to now is       51.9 secs

     total energy              =    -872.19863880 Ry
     estimated scf accuracy    <       0.00000038 Ry

     iteration # 30     ecut=    50.00 Ry     beta= 0.70
     Davidson diagonalization with overlap

---- Real-time Memory Report at c_bands before calling an iterative solver
           138 MiB given to the printing process from OS
             0 MiB allocation reported by mallinfo(arena+hblkhd)
        240313 MiB available memory on the node where the printing process lives
------------------
     ethr =  2.28E-10,  avg # of iterations =  5.8

     total cpu time spent up to now is       53.5 secs

     total energy              =    -872.19863870 Ry
     estimated scf accuracy    <       0.00000058 Ry

     iteration # 31     ecut=    50.00 Ry     beta= 0.70
     Davidson diagonalization with overlap

---- Real-time Memory Report at c_bands before calling an iterative solver
           138 MiB given to the printing process from OS
             0 MiB allocation reported by mallinfo(arena+hblkhd)
        240311 MiB available memory on the node where the printing process lives
------------------
     ethr =  2.28E-10,  avg # of iterations =  5.6

     total cpu time spent up to now is       54.7 secs

     total energy              =    -872.19863870 Ry
     estimated scf accuracy    <       0.00000009 Ry

     iteration # 32     ecut=    50.00 Ry     beta= 0.70
     Davidson diagonalization with overlap

---- Real-time Memory Report at c_bands before calling an iterative solver
           138 MiB given to the printing process from OS
             0 MiB allocation reported by mallinfo(arena+hblkhd)
        240312 MiB available memory on the node where the printing process lives
------------------
     ethr =  5.63E-11,  avg # of iterations = 11.6

     total cpu time spent up to now is       57.1 secs

     total energy              =    -872.19863881 Ry
     estimated scf accuracy    <       0.00000005 Ry

     iteration # 33     ecut=    50.00 Ry     beta= 0.70
     Davidson diagonalization with overlap

---- Real-time Memory Report at c_bands before calling an iterative solver
           138 MiB given to the printing process from OS
             0 MiB allocation reported by mallinfo(arena+hblkhd)
        240330 MiB available memory on the node where the printing process lives
------------------
     ethr =  3.01E-11,  avg # of iterations =  1.9

     total cpu time spent up to now is       58.1 secs

     total energy              =    -872.19863879 Ry
     estimated scf accuracy    <       0.00000006 Ry

     iteration # 34     ecut=    50.00 Ry     beta= 0.70
     Davidson diagonalization with overlap

---- Real-time Memory Report at c_bands before calling an iterative solver
           138 MiB given to the printing process from OS
             0 MiB allocation reported by mallinfo(arena+hblkhd)
        240325 MiB available memory on the node where the printing process lives
------------------
     ethr =  3.01E-11,  avg # of iterations =  2.0

     total cpu time spent up to now is       59.1 secs

     total energy              =    -872.19863878 Ry
     estimated scf accuracy    <       0.00000002 Ry

     iteration # 35     ecut=    50.00 Ry     beta= 0.70
     Davidson diagonalization with overlap

---- Real-time Memory Report at c_bands before calling an iterative solver
           138 MiB given to the printing process from OS
             0 MiB allocation reported by mallinfo(arena+hblkhd)
        240332 MiB available memory on the node where the printing process lives
------------------
     ethr =  1.19E-11,  avg # of iterations =  9.3

     total cpu time spent up to now is       60.9 secs

     total energy              =    -872.19863879 Ry
     estimated scf accuracy    <          2.9E-09 Ry

     iteration # 36     ecut=    50.00 Ry     beta= 0.70
     Davidson diagonalization with overlap

---- Real-time Memory Report at c_bands before calling an iterative solver
           138 MiB given to the printing process from OS
             0 MiB allocation reported by mallinfo(arena+hblkhd)
        240331 MiB available memory on the node where the printing process lives
------------------
     ethr =  1.73E-12,  avg # of iterations =  5.0

     total cpu time spent up to now is       62.4 secs

     total energy              =    -872.19863879 Ry
     estimated scf accuracy    <          1.8E-09 Ry

     iteration # 37     ecut=    50.00 Ry     beta= 0.70
     Davidson diagonalization with overlap

---- Real-time Memory Report at c_bands before calling an iterative solver
           138 MiB given to the printing process from OS
             0 MiB allocation reported by mallinfo(arena+hblkhd)
        240328 MiB available memory on the node where the printing process lives
------------------
     ethr =  1.09E-12,  avg # of iterations = 10.2

     total cpu time spent up to now is       64.3 secs

     total energy              =    -872.19863879 Ry
     estimated scf accuracy    <          3.3E-10 Ry

     iteration # 38     ecut=    50.00 Ry     beta= 0.70
     Davidson diagonalization with overlap

---- Real-time Memory Report at c_bands before calling an iterative solver
           138 MiB given to the printing process from OS
             0 MiB allocation reported by mallinfo(arena+hblkhd)
        240329 MiB available memory on the node where the printing process lives
------------------
     ethr =  1.98E-13,  avg # of iterations =  5.7

     total cpu time spent up to now is       65.9 secs

     total energy              =    -872.19863879 Ry
     estimated scf accuracy    <          4.9E-10 Ry

     iteration # 39     ecut=    50.00 Ry     beta= 0.70
     Davidson diagonalization with overlap

---- Real-time Memory Report at c_bands before calling an iterative solver
           138 MiB given to the printing process from OS
             0 MiB allocation reported by mallinfo(arena+hblkhd)
        240338 MiB available memory on the node where the printing process lives
------------------
     ethr =  1.98E-13,  avg # of iterations =  2.0

     total cpu time spent up to now is       66.9 secs

     total energy              =    -872.19863879 Ry
     estimated scf accuracy    <          2.5E-10 Ry

     iteration # 40     ecut=    50.00 Ry     beta= 0.70
     Davidson diagonalization with overlap

---- Real-time Memory Report at c_bands before calling an iterative solver
           138 MiB given to the printing process from OS
             0 MiB allocation reported by mallinfo(arena+hblkhd)
        240330 MiB available memory on the node where the printing process lives
------------------
     ethr =  1.48E-13,  avg # of iterations =  8.4

     total cpu time spent up to now is       68.3 secs

     End of self-consistent calculation

          k = 0.0000 0.0000 0.0000 ( 18689 PWs)   bands (ev):

   -20.3252 -20.2701 -20.2588 -20.2516 -19.2640 -19.2080 -19.1575 -19.1099
   -17.8073 -17.7500 -17.7456 -17.6911 -16.7531 -16.6500 -16.6132 -16.4985
   -13.1019 -13.0321 -12.9992 -12.9962 -10.6357 -10.5438 -10.5290 -10.4070
    -9.9825  -9.9214  -9.7631  -9.7205  -8.5199  -8.4674  -8.4333  -8.4085
    -7.0720  -7.0316  -6.8852  -6.8529  -6.3949  -6.3307  -6.2323  -6.0993
    -5.0174  -4.8723  -4.7508  -4.5637  -4.4732  -4.4495  -4.4288  -4.3916
    -4.3421  -4.2489  -3.9892  -3.9469  -3.8217  -3.5093  -3.3357  -3.1984
    -3.1680  -3.1495  -3.0338  -2.9126  -2.7219  -2.7031  -2.6547  -2.6018
    -1.9236  -1.9208  -1.7384  -1.7178  -0.1924   0.1000   0.1415   0.1512
     0.1909   0.2118   0.2161   0.2444   0.4489   0.7442   0.7607   0.8564
     1.0785   1.1679   1.1698   1.1853

     occupation numbers 
     1.0000   1.0000   1.0000   1.0000   1.0000   1.0000   1.0000   1.0000
     1.0000   1.0000   1.0000   1.0000   1.0000   1.0000   1.0000   1.0000
     1.0000   1.0000   1.0000   1.0000   1.0000   1.0000   1.0000   1.0000
     1.0000   1.0000   1.0000   1.0000   1.0000   1.0000   1.0000   1.0000
     1.0000   1.0000   1.0000   1.0000   1.0000   1.0000   1.0000   1.0000
     1.0000   1.0000   1.0000   1.0000   1.0000   1.0000   1.0000   1.0000
     1.0000   1.0000   1.0000   1.0000   1.0000   1.0000   1.0000   1.0000
     1.0000   1.0000   1.0000   1.0000   1.0000   1.0000   1.0000   1.0000
     1.0000   1.0000   1.0000   1.0000   1.0000   1.0000   1.0000   1.0000
     1.0000   1.0000   1.0000   1.0000   1.0000   1.0000   1.0000   1.0000
     1.0000   1.0000   1.0000   1.0000

          k = 0.0000 0.0000 1.2688 ( 18671 PWs)   bands (ev):

   -20.2423 -20.2166 -20.2051 -20.1846 -19.2066 -19.1634 -19.1256 -19.0904
   -17.7546 -17.7474 -17.6963 -17.6909 -16.7077 -16.6209 -16.5899 -16.4963
   -12.9972 -12.9605 -12.9454 -12.9376 -10.6356 -10.5805 -10.5357 -10.4555
    -9.9231  -9.8912  -9.7207  -9.7011  -8.4901  -8.4738  -8.4082  -8.3928
    -7.0854  -7.0544  -6.9258  -6.8734  -6.3674  -6.3084  -6.2654  -6.1275
    -5.3021  -5.2443  -5.1830  -5.1489  -4.9557  -4.8138  -4.6757  -4.5842
    -4.3628  -4.2581  -4.0012  -3.9396  -3.7793  -3.4940  -3.3398  -3.3078
    -3.2816  -3.2769  -3.1988  -3.1956  -3.0812  -3.0705  -3.0467  -2.9472
    -2.0313  -1.9695  -1.9062  -1.8759  -0.3067  -0.2924  -0.1598   0.0300
     0.0341   0.1446   0.1996   0.2303   0.4939   0.7184   0.7551   0.7673
     0.8188   0.8406   0.9561   0.9611

     occupation numbers 
     1.0000   1.0000   1.0000   1.0000   1.0000   1.0000   1.0000   1.0000
     1.0000   1.0000   1.0000   1.0000   1.0000   1.0000   1.0000   1.0000
     1.0000   1.0000   1.0000   1.0000   1.0000   1.0000   1.0000   1.0000
     1.0000   1.0000   1.0000   1.0000   1.0000   1.0000   1.0000   1.0000
     1.0000   1.0000   1.0000   1.0000   1.0000   1.0000   1.0000   1.0000
     1.0000   1.0000   1.0000   1.0000   1.0000   1.0000   1.0000   1.0000
     1.0000   1.0000   1.0000   1.0000   1.0000   1.0000   1.0000   1.0000
     1.0000   1.0000   1.0000   1.0000   1.0000   1.0000   1.0000   1.0000
     1.0000   1.0000   1.0000   1.0000   1.0000   1.0000   1.0000   1.0000
     1.0000   1.0000   1.0000   1.0000   1.0000   1.0000   1.0000   1.0000
     1.0000   1.0000   1.0000   1.0000

          k = 0.0000 0.3215 0.0000 ( 18662 PWs)   bands (ev):

   -20.3140 -20.2880 -20.2549 -20.2498 -19.2499 -19.2219 -19.1452 -19.1213
   -17.7925 -17.7616 -17.7369 -17.7075 -16.7264 -16.6749 -16.5834 -16.5261
   -13.0867 -13.0534 -12.9942 -12.9941 -10.6219 -10.5866 -10.4753 -10.4251
    -9.9349  -9.8826  -9.8271  -9.7822  -8.4846  -8.4437  -8.4437  -8.4144
    -7.0610  -7.0402  -6.8718  -6.8562  -6.3923  -6.3659  -6.1845  -6.1236
    -5.0020  -4.8671  -4.7761  -4.6302  -4.4774  -4.4664  -4.4126  -4.3970
    -4.3323  -4.1791  -4.1282  -3.9741  -3.6755  -3.4686  -3.3787  -3.2076
    -3.1657  -3.0869  -3.0415  -2.9438  -2.7184  -2.7095  -2.6390  -2.6133
    -1.9223  -1.9209  -1.7330  -1.7227  -0.1316   0.0144   0.1114   0.1371
     0.2090   0.2200   0.2353   0.2406   0.5380   0.6908   0.7670   0.8232
     1.1001   1.1436   1.1753   1.1842

     occupation numbers 
     1.0000   1.0000   1.0000   1.0000   1.0000   1.0000   1.0000   1.0000
     1.0000   1.0000   1.0000   1.0000   1.0000   1.0000   1.0000   1.0000
     1.0000   1.0000   1.0000   1.0000   1.0000   1.0000   1.0000   1.0000
     1.0000   1.0000   1.0000   1.0000   1.0000   1.0000   1.0000   1.0000
     1.0000   1.0000   1.0000   1.0000   1.0000   1.0000   1.0000   1.0000
     1.0000   1.0000   1.0000   1.0000   1.0000   1.0000   1.0000   1.0000
     1.0000   1.0000   1.0000   1.0000   1.0000   1.0000   1.0000   1.0000
     1.0000   1.0000   1.0000   1.0000   1.0000   1.0000   1.0000   1.0000
     1.0000   1.0000   1.0000   1.0000   1.0000   1.0000   1.0000   1.0000
     1.0000   1.0000   1.0000   1.0000   1.0000   1.0000   1.0000   1.0000
     1.0000   1.0000   1.0000   1.0000

          k = 0.0000 0.3215 1.2688 ( 18681 PWs)   bands (ev):

   -20.2352 -20.2213 -20.2021 -20.1907 -19.1949 -19.1728 -19.1178 -19.0997
   -17.7407 -17.7345 -17.7116 -17.7063 -16.6833 -16.6375 -16.5699 -16.5208
   -12.9875 -12.9682 -12.9450 -12.9390 -10.6254 -10.6010 -10.5060 -10.4691
    -9.8782  -9.8556  -9.7774  -9.7608  -8.4646  -8.4445  -8.4197  -8.3982
    -7.0768  -7.0607  -6.9080  -6.8821  -6.3655  -6.3443  -6.2132  -6.1524
    -5.2877  -5.2574  -5.1796  -5.1600  -4.9300  -4.8038  -4.7386  -4.6320
    -4.3202  -4.1685  -4.1462  -4.0238  -3.6234  -3.4463  -3.3853  -3.3101
    -3.2706  -3.2192  -3.2016  -3.1568  -3.1177  -3.0877  -3.0540  -2.9791
    -2.0158  -1.9850  -1.8979  -1.8829  -0.2938  -0.2854  -0.1123  -0.0080
     0.0328   0.0569   0.2410   0.2513   0.5468   0.6633   0.7632   0.7863
     0.8248   0.8688   0.9084   0.9363

     occupation numbers 
     1.0000   1.0000   1.0000   1.0000   1.0000   1.0000   1.0000   1.0000
     1.0000   1.0000   1.0000   1.0000   1.0000   1.0000   1.0000   1.0000
     1.0000   1.0000   1.0000   1.0000   1.0000   1.0000   1.0000   1.0000
     1.0000   1.0000   1.0000   1.0000   1.0000   1.0000   1.0000   1.0000
     1.0000   1.0000   1.0000   1.0000   1.0000   1.0000   1.0000   1.0000
     1.0000   1.0000   1.0000   1.0000   1.0000   1.0000   1.0000   1.0000
     1.0000   1.0000   1.0000   1.0000   1.0000   1.0000   1.0000   1.0000
     1.0000   1.0000   1.0000   1.0000   1.0000   1.0000   1.0000   1.0000
     1.0000   1.0000   1.0000   1.0000   1.0000   1.0000   1.0000   1.0000
     1.0000   1.0000   1.0000   1.0000   1.0000   1.0000   1.0000   1.0000
     1.0000   1.0000   1.0000   1.0000

          k = 0.3333 0.0000 0.1995 ( 18692 PWs)   bands (ev):

   -20.3148 -20.2900 -20.2510 -20.2502 -19.2539 -19.2283 -19.1393 -19.1178
   -17.7927 -17.7640 -17.7323 -17.7051 -16.7383 -16.6964 -16.5638 -16.5162
   -13.0768 -13.0292 -13.0179 -13.0066 -10.6171 -10.5630 -10.5037 -10.4359
    -9.9681  -9.9373  -9.7489  -9.7278  -8.5068  -8.4835  -8.4232  -8.4137
    -7.0597  -7.0406  -6.8832  -6.8695  -6.3616  -6.2848  -6.2711  -6.1470
    -4.9353  -4.8723  -4.7302  -4.6565  -4.4641  -4.4408  -4.4351  -4.4076
    -4.3656  -4.2565  -3.9887  -3.9476  -3.7563  -3.4684  -3.4192  -3.2841
    -3.1531  -3.0515  -2.9965  -2.9593  -2.7171  -2.7082  -2.6444  -2.6181
    -1.8853  -1.8577  -1.7893  -1.7600  -0.1333   0.0075   0.1246   0.1396
     0.2234   0.2276   0.2321   0.2388   0.4950   0.6181   0.8368   0.8596
     1.0915   1.1260   1.1921   1.1945

     occupation numbers 
     1.0000   1.0000   1.0000   1.0000   1.0000   1.0000   1.0000   1.0000
     1.0000   1.0000   1.0000   1.0000   1.0000   1.0000   1.0000   1.0000
     1.0000   1.0000   1.0000   1.0000   1.0000   1.0000   1.0000   1.0000
     1.0000   1.0000   1.0000   1.0000   1.0000   1.0000   1.0000   1.0000
     1.0000   1.0000   1.0000   1.0000   1.0000   1.0000   1.0000   1.0000
     1.0000   1.0000   1.0000   1.0000   1.0000   1.0000   1.0000   1.0000
     1.0000   1.0000   1.0000   1.0000   1.0000   1.0000   1.0000   1.0000
     1.0000   1.0000   1.0000   1.0000   1.0000   1.0000   1.0000   1.0000
     1.0000   1.0000   1.0000   1.0000   1.0000   1.0000   1.0000   1.0000
     1.0000   1.0000   1.0000   1.0000   1.0000   1.0000   1.0000   1.0000
     1.0000   1.0000   1.0000   1.0000

          k = 0.3333 0.0000 1.4683 ( 18652 PWs)   bands (ev):

   -20.2359 -20.2300 -20.1976 -20.1849 -19.1933 -19.1859 -19.1052 -19.1014
   -17.7614 -17.7405 -17.7043 -17.6831 -16.6888 -16.6686 -16.5391 -16.5183
   -12.9856 -12.9759 -12.9406 -12.9387 -10.6121 -10.6082 -10.4995 -10.4894
    -9.9099  -9.9059  -9.7104  -9.7082  -8.5007  -8.4586  -8.4156  -8.3894
    -7.0763  -7.0664  -6.9184  -6.8825  -6.3420  -6.3123  -6.2428  -6.1777
    -5.3394  -5.1973  -5.1911  -5.1522  -4.8788  -4.8237  -4.6568  -4.6365
    -4.3641  -4.3034  -4.0025  -3.9420  -3.6744  -3.5617  -3.4005  -3.3540
    -3.3033  -3.2319  -3.1551  -3.1304  -3.1192  -3.0318  -3.0256  -2.9887
    -2.1299  -2.0448  -1.8149  -1.7988  -0.3422  -0.2517  -0.0912  -0.0127
     0.0071   0.0951   0.1909   0.2712   0.5533   0.6019   0.7332   0.8222
     0.8258   0.8825   0.9458   0.9545

     occupation numbers 
     1.0000   1.0000   1.0000   1.0000   1.0000   1.0000   1.0000   1.0000
     1.0000   1.0000   1.0000   1.0000   1.0000   1.0000   1.0000   1.0000
     1.0000   1.0000   1.0000   1.0000   1.0000   1.0000   1.0000   1.0000
     1.0000   1.0000   1.0000   1.0000   1.0000   1.0000   1.0000   1.0000
     1.0000   1.0000   1.0000   1.0000   1.0000   1.0000   1.0000   1.0000
     1.0000   1.0000   1.0000   1.0000   1.0000   1.0000   1.0000   1.0000
     1.0000   1.0000   1.0000   1.0000   1.0000   1.0000   1.0000   1.0000
     1.0000   1.0000   1.0000   1.0000   1.0000   1.0000   1.0000   1.0000
     1.0000   1.0000   1.0000   1.0000   1.0000   1.0000   1.0000   1.0000
     1.0000   1.0000   1.0000   1.0000   1.0000   1.0000   1.0000   1.0000
     1.0000   1.0000   1.0000   1.0000

          k = 0.3333 0.0000-1.0693 ( 18700 PWs)   bands (ev):

   -20.2456 -20.2162 -20.1961 -20.1905 -19.2035 -19.1699 -19.1209 -19.0916
   -17.7651 -17.7371 -17.7069 -17.6802 -16.7002 -16.6472 -16.5633 -16.5041
   -13.0086 -12.9737 -12.9296 -12.9280 -10.6309 -10.5801 -10.5339 -10.4635
    -9.9257  -9.8898  -9.7197  -9.7024  -8.4941  -8.4683  -8.4073  -8.3967
    -7.0848  -7.0640  -6.9033  -6.8864  -6.3618  -6.2852  -6.2626  -6.1514
    -5.3125  -5.2270  -5.1758  -5.1705  -4.9123  -4.8240  -4.6906  -4.5976
    -4.3631  -4.2753  -3.9900  -3.9586  -3.7628  -3.4801  -3.4269  -3.3234
    -3.2592  -3.2209  -3.2102  -3.1508  -3.1054  -3.0565  -3.0143  -2.9811
    -2.0710  -1.9920  -1.8661  -1.8548  -0.3306  -0.2533  -0.1191  -0.0181
     0.0551   0.0726   0.2171   0.2459   0.5067   0.6513   0.7578   0.8066
     0.8374   0.8434   0.9517   0.9608

     occupation numbers 
     1.0000   1.0000   1.0000   1.0000   1.0000   1.0000   1.0000   1.0000
     1.0000   1.0000   1.0000   1.0000   1.0000   1.0000   1.0000   1.0000
     1.0000   1.0000   1.0000   1.0000   1.0000   1.0000   1.0000   1.0000
     1.0000   1.0000   1.0000   1.0000   1.0000   1.0000   1.0000   1.0000
     1.0000   1.0000   1.0000   1.0000   1.0000   1.0000   1.0000   1.0000
     1.0000   1.0000   1.0000   1.0000   1.0000   1.0000   1.0000   1.0000
     1.0000   1.0000   1.0000   1.0000   1.0000   1.0000   1.0000   1.0000
     1.0000   1.0000   1.0000   1.0000   1.0000   1.0000   1.0000   1.0000
     1.0000   1.0000   1.0000   1.0000   1.0000   1.0000   1.0000   1.0000
     1.0000   1.0000   1.0000   1.0000   1.0000   1.0000   1.0000   1.0000
     1.0000   1.0000   1.0000   1.0000

          k = 0.3333 0.3215 0.1995 ( 18674 PWs)   bands (ev):

   -20.3067 -20.2931 -20.2555 -20.2516 -19.2437 -19.2300 -19.1381 -19.1264
   -17.7784 -17.7508 -17.7482 -17.7213 -16.7171 -16.6929 -16.5639 -16.5368
   -13.0648 -13.0400 -13.0164 -13.0082 -10.6053 -10.5799 -10.4802 -10.4480
    -9.9218  -9.8957  -9.8128  -9.7906  -8.4784  -8.4647  -8.4248  -8.4167
    -7.0525  -7.0425  -6.8769  -6.8700  -6.3524  -6.3215  -6.2261  -6.1715
    -4.9476  -4.8867  -4.7379  -4.6831  -4.4666  -4.4570  -4.4232  -4.4127
    -4.3213  -4.1875  -4.1129  -4.0252  -3.5993  -3.5004  -3.3707  -3.3089
    -3.1198  -3.0707  -2.9944  -2.9697  -2.7142  -2.7094  -2.6387  -2.6253
    -1.8780  -1.8643  -1.7812  -1.7667  -0.0838  -0.0005   0.1161   0.1305
     0.1920   0.2191   0.2263   0.2323   0.5557   0.6199   0.8130   0.8301
     1.1081   1.1282   1.1823   1.1878

     occupation numbers 
     1.0000   1.0000   1.0000   1.0000   1.0000   1.0000   1.0000   1.0000
     1.0000   1.0000   1.0000   1.0000   1.0000   1.0000   1.0000   1.0000
     1.0000   1.0000   1.0000   1.0000   1.0000   1.0000   1.0000   1.0000
     1.0000   1.0000   1.0000   1.0000   1.0000   1.0000   1.0000   1.0000
     1.0000   1.0000   1.0000   1.0000   1.0000   1.0000   1.0000   1.0000
     1.0000   1.0000   1.0000   1.0000   1.0000   1.0000   1.0000   1.0000
     1.0000   1.0000   1.0000   1.0000   1.0000   1.0000   1.0000   1.0000
     1.0000   1.0000   1.0000   1.0000   1.0000   1.0000   1.0000   1.0000
     1.0000   1.0000   1.0000   1.0000   1.0000   1.0000   1.0000   1.0000
     1.0000   1.0000   1.0000   1.0000   1.0000   1.0000   1.0000   1.0000
     1.0000   1.0000   1.0000   1.0000

          k = 0.3333 0.3215 1.4683 ( 18672 PWs)   bands (ev):

   -20.2317 -20.2279 -20.1985 -20.1912 -19.1871 -19.1830 -19.1086 -19.1064
   -17.7481 -17.7271 -17.7196 -17.6984 -16.6710 -16.6588 -16.5471 -16.5346
   -12.9795 -12.9739 -12.9442 -12.9421 -10.6088 -10.6067 -10.4965 -10.4914
    -9.8709  -9.8633  -9.7711  -9.7652  -8.4705  -8.4341  -8.4255  -8.3965
    -7.0715  -7.0661  -6.9068  -6.8887  -6.3351  -6.3192  -6.2295  -6.1960
    -5.3179  -5.2608  -5.1568  -5.1509  -4.8628  -4.8232  -4.7048  -4.6851
    -4.2877  -4.2339  -4.0939  -4.0770  -3.5535  -3.5108  -3.3711  -3.3433
    -3.2902  -3.2343  -3.1599  -3.1375  -3.1328  -3.0724  -3.0185  -2.9960
    -2.1098  -2.0673  -1.8104  -1.8025  -0.3125  -0.2645  -0.0597  -0.0102
     0.0140   0.0586   0.1965   0.2400   0.5794   0.6074   0.7749   0.7997
     0.8113   0.8749   0.9159   0.9505

     occupation numbers 
     1.0000   1.0000   1.0000   1.0000   1.0000   1.0000   1.0000   1.0000
     1.0000   1.0000   1.0000   1.0000   1.0000   1.0000   1.0000   1.0000
     1.0000   1.0000   1.0000   1.0000   1.0000   1.0000   1.0000   1.0000
     1.0000   1.0000   1.0000   1.0000   1.0000   1.0000   1.0000   1.0000
     1.0000   1.0000   1.0000   1.0000   1.0000   1.0000   1.0000   1.0000
     1.0000   1.0000   1.0000   1.0000   1.0000   1.0000   1.0000   1.0000
     1.0000   1.0000   1.0000   1.0000   1.0000   1.0000   1.0000   1.0000
     1.0000   1.0000   1.0000   1.0000   1.0000   1.0000   1.0000   1.0000
     1.0000   1.0000   1.0000   1.0000   1.0000   1.0000   1.0000   1.0000
     1.0000   1.0000   1.0000   1.0000   1.0000   1.0000   1.0000   1.0000
     1.0000   1.0000   1.0000   1.0000

          k = 0.3333 0.3215-1.0693 ( 18678 PWs)   bands (ev):

   -20.2375 -20.2215 -20.1978 -20.1924 -19.1932 -19.1755 -19.1160 -19.1004
   -17.7512 -17.7241 -17.7221 -17.6957 -16.6783 -16.6471 -16.5602 -16.5259
   -12.9992 -12.9813 -12.9306 -12.9278 -10.6210 -10.5983 -10.5078 -10.4753
    -9.8820  -9.8523  -9.7802  -9.7591  -8.4617  -8.4426  -8.4185  -8.4058
    -7.0772  -7.0664  -6.8960  -6.8876  -6.3539  -6.3235  -6.2185  -6.1709
    -5.2953  -5.2549  -5.1729  -5.1642  -4.8995  -4.8125  -4.7419  -4.6520
    -4.3181  -4.1816  -4.1405  -4.0367  -3.5997  -3.4847  -3.3791  -3.3059
    -3.2849  -3.2512  -3.1696  -3.1311  -3.1098  -3.0871  -3.0281  -2.9982
    -2.0519  -2.0125  -1.8625  -1.8567  -0.3072  -0.2673  -0.0730  -0.0095
     0.0327   0.0603   0.1924   0.2282   0.5578   0.6328   0.7927   0.8058
     0.8096   0.8805   0.8998   0.9395

     occupation numbers 
     1.0000   1.0000   1.0000   1.0000   1.0000   1.0000   1.0000   1.0000
     1.0000   1.0000   1.0000   1.0000   1.0000   1.0000   1.0000   1.0000
     1.0000   1.0000   1.0000   1.0000   1.0000   1.0000   1.0000   1.0000
     1.0000   1.0000   1.0000   1.0000   1.0000   1.0000   1.0000   1.0000
     1.0000   1.0000   1.0000   1.0000   1.0000   1.0000   1.0000   1.0000
     1.0000   1.0000   1.0000   1.0000   1.0000   1.0000   1.0000   1.0000
     1.0000   1.0000   1.0000   1.0000   1.0000   1.0000   1.0000   1.0000
     1.0000   1.0000   1.0000   1.0000   1.0000   1.0000   1.0000   1.0000
     1.0000   1.0000   1.0000   1.0000   1.0000   1.0000   1.0000   1.0000
     1.0000   1.0000   1.0000   1.0000   1.0000   1.0000   1.0000   1.0000
     1.0000   1.0000   1.0000   1.0000

     highest occupied level (ev):     1.1945

!    total energy              =    -872.19863879 Ry
     total all-electron energy =     -3316.900637 Ry
     estimated scf accuracy    <          1.5E-11 Ry

     The total energy is the sum of the following terms:
     one-electron contribution =    -465.57667625 Ry
     hartree contribution      =     300.67872384 Ry
     xc contribution           =    -179.88069903 Ry
     ewald contribution        =    -275.27780188 Ry
     one-center paw contrib.   =    -252.14218547 Ry
      -> PAW hartree energy AE =      11.33502858 Ry
      -> PAW hartree energy PS =     -11.32019857 Ry
      -> PAW xc energy AE      =     -11.03528645 Ry
      -> PAW xc energy PS      =       4.36863107 Ry
      -> total E_H with PAW    =     300.69355386 Ry
      -> total E_XC with PAW   =    -186.54735441 Ry

     convergence has been achieved in  40 iterations

     Forces acting on atoms (cartesian axes, Ry/au):

     atom    1 type  1   force =     0.00904230   -0.03412740    0.00169861
     atom    2 type  1   force =    -0.00904230    0.03412740   -0.00169861
     atom    3 type  1   force =    -0.00904230   -0.03412740   -0.00169861
     atom    4 type  1   force =     0.00904230    0.03412740    0.00169861
     atom    5 type  1   force =     0.01667745   -0.01103211    0.00254943
     atom    6 type  1   force =    -0.01667745    0.01103211   -0.00254943
     atom    7 type  1   force =    -0.01667745   -0.01103211   -0.00254943
     atom    8 type  1   force =     0.01667745    0.01103211    0.00254943
     atom    9 type  1   force =    -0.19445589    0.22728844   -0.01730431
     atom   10 type  1   force =     0.19445589   -0.22728844    0.01730431
     atom   11 type  1   force =     0.19445589    0.22728844    0.01730431
     atom   12 type  1   force =    -0.19445589   -0.22728844   -0.01730431
     atom   13 type  1   force =    -0.21280472   -0.03063967   -0.01885369
     atom   14 type  1   force =     0.21280472    0.03063967    0.01885369
     atom   15 type  1   force =     0.21280472   -0.03063967    0.01885369
     atom   16 type  1   force =    -0.21280472    0.03063967   -0.01885369
     atom   17 type  2   force =     0.24989710    0.05387828    0.02082198
     atom   18 type  2   force =    -0.24989710   -0.05387828   -0.02082198
     atom   19 type  2   force =    -0.24989710    0.05387828   -0.02082198
     atom   20 type  2   force =     0.24989710   -0.05387828    0.02082198
     atom   21 type  2   force =     0.22139330    0.53190507   -0.02022560
     atom   22 type  2   force =    -0.22139330   -0.53190507    0.02022560
     atom   23 type  2   force =    -0.22139330    0.53190507    0.02022560
     atom   24 type  2   force =     0.22139330   -0.53190507   -0.02022560
     atom   25 type  2   force =    -0.38874974   -0.04293413   -0.04842857
     atom   26 type  2   force =     0.38874974    0.04293413    0.04842857
     atom   27 type  2   force =     0.38874974   -0.04293413    0.04842857
     atom   28 type  2   force =    -0.38874974    0.04293413   -0.04842857
     atom   29 type  2   force =     0.19684066   -0.26194928    0.02013757
     atom   30 type  2   force =    -0.19684066    0.26194928   -0.02013757
     atom   31 type  2   force =    -0.19684066   -0.26194928   -0.02013757
     atom   32 type  2   force =     0.19684066    0.26194928    0.02013757
     atom   33 type  3   force =    -0.21634371   -0.51452046    0.02190993
     atom   34 type  3   force =     0.21634371    0.51452046   -0.02190993
     atom   35 type  3   force =     0.21634371   -0.51452046   -0.02190993
     atom   36 type  3   force =    -0.21634371    0.51452046    0.02190993
     atom   37 type  3   force =     0.36242090    0.05679329    0.04510765
     atom   38 type  3   force =    -0.36242090   -0.05679329   -0.04510765
     atom   39 type  3   force =    -0.36242090    0.05679329   -0.04510765
     atom   40 type  3   force =     0.36242090   -0.05679329    0.04510765
     atom   41 type  4   force =    -0.03129510    0.04709966   -0.00529160
     atom   42 type  4   force =     0.03129510   -0.04709966    0.00529160
     atom   43 type  4   force =     0.03129510    0.04709966    0.00529160
     atom   44 type  4   force =    -0.03129510   -0.04709966   -0.00529160
     atom   45 type  4   force =    -0.00814401   -0.01670624   -0.00104732
     atom   46 type  4   force =     0.00814401    0.01670624    0.00104732
     atom   47 type  4   force =     0.00814401   -0.01670624    0.00104732
     atom   48 type  4   force =    -0.00814401    0.01670624   -0.00104732
     The non-local contrib.  to forces
     atom    1 type  1   force =     0.14539492   -0.23921554    0.02905356
     atom    2 type  1   force =    -0.14539492    0.23921554   -0.02905356
     atom    3 type  1   force =    -0.14539492   -0.23921554   -0.02905356
     atom    4 type  1   force =     0.14539492    0.23921554    0.02905356
     atom    5 type  1   force =    -0.31964381    0.13683120   -0.03160752
     atom    6 type  1   force =     0.31964381   -0.13683120    0.03160752
     atom    7 type  1   force =     0.31964381    0.13683120    0.03160752
     atom    8 type  1   force =    -0.31964381   -0.13683120   -0.03160752
     atom    9 type  1   force =    -0.32999424    0.31307343   -0.02923314
     atom   10 type  1   force =     0.32999424   -0.31307343    0.02923314
     atom   11 type  1   force =     0.32999424    0.31307343    0.02923314
     atom   12 type  1   force =    -0.32999424   -0.31307343   -0.02923314
     atom   13 type  1   force =    -0.53634999    0.36080882   -0.05060861
     atom   14 type  1   force =     0.53634999   -0.36080882    0.05060861
     atom   15 type  1   force =     0.53634999    0.36080882    0.05060861
     atom   16 type  1   force =    -0.53634999   -0.36080882   -0.05060861
     atom   17 type  2   force =    -0.11647701   -0.02452551   -0.00900997
     atom   18 type  2   force =     0.11647701    0.02452551    0.00900997
     atom   19 type  2   force =     0.11647701   -0.02452551    0.00900997
     atom   20 type  2   force =    -0.11647701    0.02452551   -0.00900997
     atom   21 type  2   force =    -0.06497544   -0.16946644    0.00849760
     atom   22 type  2   force =     0.06497544    0.16946644   -0.00849760
     atom   23 type  2   force =     0.06497544   -0.16946644   -0.00849760
     atom   24 type  2   force =    -0.06497544    0.16946644    0.00849760
     atom   25 type  2   force =     0.15694555    0.02333276    0.02051639
     atom   26 type  2   force =    -0.15694555   -0.02333276   -0.02051639
     atom   27 type  2   force =    -0.15694555    0.02333276   -0.02051639
     atom   28 type  2   force =     0.15694555   -0.02333276    0.02051639
     atom   29 type  2   force =    -0.07213598    0.10075130   -0.00644921
     atom   30 type  2   force =     0.07213598   -0.10075130    0.00644921
     atom   31 type  2   force =     0.07213598    0.10075130    0.00644921
     atom   32 type  2   force =    -0.07213598   -0.10075130   -0.00644921
     atom   33 type  3   force =    -0.27297775   -0.61187754   -0.04557207
     atom   34 type  3   force =     0.27297775    0.61187754    0.04557207
     atom   35 type  3   force =     0.27297775   -0.61187754    0.04557207
     atom   36 type  3   force =    -0.27297775    0.61187754   -0.04557207
     atom   37 type  3   force =     0.45279826    0.13301202    0.02216644
     atom   38 type  3   force =    -0.45279826   -0.13301202   -0.02216644
     atom   39 type  3   force =    -0.45279826    0.13301202   -0.02216644
     atom   40 type  3   force =     0.45279826   -0.13301202    0.02216644
     atom   41 type  4   force =     1.59471865   -2.06134843    0.20273789
     atom   42 type  4   force =    -1.59471865    2.06134843   -0.20273789
     atom   43 type  4   force =    -1.59471865   -2.06134843   -0.20273789
     atom   44 type  4   force =     1.59471865    2.06134843    0.20273789
     atom   45 type  4   force =     1.02880217    2.17563413    0.07703027
     atom   46 type  4   force =    -1.02880217   -2.17563413   -0.07703027
     atom   47 type  4   force =    -1.02880217    2.17563413   -0.07703027
     atom   48 type  4   force =     1.02880217   -2.17563413    0.07703027
     The ionic contribution  to forces
     atom    1 type  1   force =     0.36054107    0.80945970   -0.08801978
     atom    2 type  1   force =    -0.36054107   -0.80945970    0.08801978
     atom    3 type  1   force =    -0.36054107    0.80945970    0.08801978
     atom    4 type  1   force =     0.36054107   -0.80945970   -0.08801978
     atom    5 type  1   force =     3.32943113   -0.48460878    1.00478926
     atom    6 type  1   force =    -3.32943113    0.48460878   -1.00478926
     atom    7 type  1   force =    -3.32943113   -0.48460878   -1.00478926
     atom    8 type  1   force =     3.32943113    0.48460878    1.00478926
     atom    9 type  1   force =     4.68964335   -3.53282526    1.88118181
     atom   10 type  1   force =    -4.68964335    3.53282526   -1.88118181
     atom   11 type  1   force =    -4.68964335   -3.53282526   -1.88118181
     atom   12 type  1   force =     4.68964335    3.53282526    1.88118181
     atom   13 type  1   force =     6.04683206   -1.41063522    1.72122411
     atom   14 type  1   force =    -6.04683206    1.41063522   -1.72122411
     atom   15 type  1   force =    -6.04683206   -1.41063522   -1.72122411
     atom   16 type  1   force =     6.04683206    1.41063522    1.72122411
     atom   17 type  2   force =     3.00392108    0.02104420    0.41524521
     atom   18 type  2   force =    -3.00392108   -0.02104420   -0.41524521
     atom   19 type  2   force =    -3.00392108    0.02104420   -0.41524521
     atom   20 type  2   force =     3.00392108   -0.02104420    0.41524521
     atom   21 type  2   force =     1.71637502    3.86355583   -0.06614909
     atom   22 type  2   force =    -1.71637502   -3.86355583    0.06614909
     atom   23 type  2   force =    -1.71637502    3.86355583    0.06614909
     atom   24 type  2   force =     1.71637502   -3.86355583   -0.06614909
     atom   25 type  2   force =    -3.77431900   -0.21600151   -0.62089793
     atom   26 type  2   force =     3.77431900    0.21600151    0.62089793
     atom   27 type  2   force =     3.77431900   -0.21600151    0.62089793
     atom   28 type  2   force =    -3.77431900    0.21600151   -0.62089793
     atom   29 type  2   force =     2.35836662   -2.22899850    0.52283353
     atom   30 type  2   force =    -2.35836662    2.22899850   -0.52283353
     atom   31 type  2   force =    -2.35836662   -2.22899850   -0.52283353
     atom   32 type  2   force =     2.35836662    2.22899850    0.52283353
     atom   33 type  3   force =     3.45331518    2.93011598    1.20248362
     atom   34 type  3   force =    -3.45331518   -2.93011598   -1.20248362
     atom   35 type  3   force =    -3.45331518    2.93011598   -1.20248362
     atom   36 type  3   force =     3.45331518   -2.93011598    1.20248362
     atom   37 type  3   force =    -2.87504969    0.22318084   -0.28556318
     atom   38 type  3   force =     2.87504969   -0.22318084    0.28556318
     atom   39 type  3   force =     2.87504969    0.22318084    0.28556318
     atom   40 type  3   force =    -2.87504969   -0.22318084   -0.28556318
     atom   41 type  4   force =    -7.44276390   11.48187086   -1.28236211
     atom   42 type  4   force =     7.44276390  -11.48187086    1.28236211
     atom   43 type  4   force =     7.44276390   11.48187086    1.28236211
     atom   44 type  4   force =    -7.44276390  -11.48187086   -1.28236211
     atom   45 type  4   force =    -2.28704475   -9.82231107    0.67567285
     atom   46 type  4   force =     2.28704475    9.82231107   -0.67567285
     atom   47 type  4   force =     2.28704475   -9.82231107   -0.67567285
     atom   48 type  4   force =    -2.28704475    9.82231107    0.67567285
     The local contribution  to forces
     atom    1 type  1   force =    -0.48954227   -0.61538716    0.06190468
     atom    2 type  1   force =     0.48954227    0.61538716   -0.06190468
     atom    3 type  1   force =     0.48954227   -0.61538716   -0.06190468
     atom    4 type  1   force =    -0.48954227    0.61538716    0.06190468
     atom    5 type  1   force =    -2.99835204    0.34395166   -0.97111564
     atom    6 type  1   force =     2.99835204   -0.34395166    0.97111564
     atom    7 type  1   force =     2.99835204    0.34395166    0.97111564
     atom    8 type  1   force =    -2.99835204   -0.34395166   -0.97111564
     atom    9 type  1   force =    -4.56375564    3.45394651   -1.86992088
     atom   10 type  1   force =     4.56375564   -3.45394651    1.86992088
     atom   11 type  1   force =     4.56375564    3.45394651    1.86992088
     atom   12 type  1   force =    -4.56375564   -3.45394651   -1.86992088
     atom   13 type  1   force =    -5.73683424    1.02884861   -1.69053725
     atom   14 type  1   force =     5.73683424   -1.02884861    1.69053725
     atom   15 type  1   force =     5.73683424    1.02884861    1.69053725
     atom   16 type  1   force =    -5.73683424   -1.02884861   -1.69053725
     atom   17 type  2   force =    -2.63754713    0.05735978   -0.38541330
     atom   18 type  2   force =     2.63754713   -0.05735978    0.38541330
     atom   19 type  2   force =     2.63754713    0.05735978    0.38541330
     atom   20 type  2   force =    -2.63754713   -0.05735978   -0.38541330
     atom   21 type  2   force =    -1.43000634   -3.16218455    0.03742589
     atom   22 type  2   force =     1.43000634    3.16218455   -0.03742589
     atom   23 type  2   force =     1.43000634   -3.16218455   -0.03742589
     atom   24 type  2   force =    -1.43000634    3.16218455    0.03742589
     atom   25 type  2   force =     3.22862370    0.14973479    0.55195295
     atom   26 type  2   force =    -3.22862370   -0.14973479   -0.55195295
     atom   27 type  2   force =    -3.22862370    0.14973479   -0.55195295
     atom   28 type  2   force =     3.22862370   -0.14973479    0.55195295
     atom   29 type  2   force =    -2.08938976    1.86629773   -0.49624673
     atom   30 type  2   force =     2.08938976   -1.86629773    0.49624673
     atom   31 type  2   force =     2.08938976    1.86629773    0.49624673
     atom   32 type  2   force =    -2.08938976   -1.86629773   -0.49624673
     atom   33 type  3   force =    -3.40016440   -2.84180591   -1.13501231
     atom   34 type  3   force =     3.40016440    2.84180591    1.13501231
     atom   35 type  3   force =     3.40016440   -2.84180591    1.13501231
     atom   36 type  3   force =    -3.40016440    2.84180591   -1.13501231
     atom   37 type  3   force =     2.79129803   -0.29755293    0.30913346
     atom   38 type  3   force =    -2.79129803    0.29755293   -0.30913346
     atom   39 type  3   force =    -2.79129803   -0.29755293   -0.30913346
     atom   40 type  3   force =     2.79129803    0.29755293    0.30913346
     atom   41 type  4   force =     5.81699784   -9.37374212    1.07436263
     atom   42 type  4   force =    -5.81699784    9.37374212   -1.07436263
     atom   43 type  4   force =    -5.81699784   -9.37374212   -1.07436263
     atom   44 type  4   force =     5.81699784    9.37374212    1.07436263
     atom   45 type  4   force =     1.25026452    7.63034038   -0.75373843
     atom   46 type  4   force =    -1.25026452   -7.63034038    0.75373843
     atom   47 type  4   force =    -1.25026452    7.63034038    0.75373843
     atom   48 type  4   force =     1.25026452   -7.63034038   -0.75373843
     The core correction contribution to forces
     atom    1 type  1   force =    -0.00735079    0.01101526   -0.00123977
     atom    2 type  1   force =     0.00735079   -0.01101526    0.00123977
     atom    3 type  1   force =     0.00735079    0.01101526    0.00123977
     atom    4 type  1   force =    -0.00735079   -0.01101526   -0.00123977
     atom    5 type  1   force =     0.00524090   -0.00720619    0.00048297
     atom    6 type  1   force =    -0.00524090    0.00720619   -0.00048297
     atom    7 type  1   force =    -0.00524090   -0.00720619   -0.00048297
     atom    8 type  1   force =     0.00524090    0.00720619    0.00048297
     atom    9 type  1   force =     0.00965132   -0.00690526    0.00066790
     atom   10 type  1   force =    -0.00965132    0.00690526   -0.00066790
     atom   11 type  1   force =    -0.00965132   -0.00690526   -0.00066790
     atom   12 type  1   force =     0.00965132    0.00690526    0.00066790
     atom   13 type  1   force =     0.01354746   -0.00966017    0.00106794
     atom   14 type  1   force =    -0.01354746    0.00966017   -0.00106794
     atom   15 type  1   force =    -0.01354746   -0.00966017   -0.00106794
     atom   16 type  1   force =     0.01354746    0.00966017    0.00106794
     atom   17 type  2   force =     0.00000000    0.00000000    0.00000000
     atom   18 type  2   force =     0.00000000    0.00000000    0.00000000
     atom   19 type  2   force =     0.00000000    0.00000000    0.00000000
     atom   20 type  2   force =     0.00000000    0.00000000    0.00000000
     atom   21 type  2   force =     0.00000000    0.00000000    0.00000000
     atom   22 type  2   force =     0.00000000    0.00000000    0.00000000
     atom   23 type  2   force =     0.00000000    0.00000000    0.00000000
     atom   24 type  2   force =     0.00000000    0.00000000    0.00000000
     atom   25 type  2   force =     0.00000000    0.00000000    0.00000000
     atom   26 type  2   force =     0.00000000    0.00000000    0.00000000
     atom   27 type  2   force =     0.00000000    0.00000000    0.00000000
     atom   28 type  2   force =     0.00000000    0.00000000    0.00000000
     atom   29 type  2   force =     0.00000000    0.00000000    0.00000000
     atom   30 type  2   force =     0.00000000    0.00000000    0.00000000
     atom   31 type  2   force =     0.00000000    0.00000000    0.00000000
     atom   32 type  2   force =     0.00000000    0.00000000    0.00000000
     atom   33 type  3   force =     0.00348259    0.00904708    0.00001053
     atom   34 type  3   force =    -0.00348259   -0.00904708   -0.00001053
     atom   35 type  3   force =    -0.00348259    0.00904708   -0.00001053
     atom   36 type  3   force =     0.00348259   -0.00904708    0.00001053
     atom   37 type  3   force =    -0.00662622   -0.00184431   -0.00062933
     atom   38 type  3   force =     0.00662622    0.00184431    0.00062933
     atom   39 type  3   force =     0.00662622   -0.00184431    0.00062933
     atom   40 type  3   force =    -0.00662622    0.00184431   -0.00062933
     atom   41 type  4   force =    -0.00024652    0.00031703   -0.00002982
     atom   42 type  4   force =     0.00024652   -0.00031703    0.00002982
     atom   43 type  4   force =     0.00024652    0.00031703    0.00002982
     atom   44 type  4   force =    -0.00024652   -0.00031703   -0.00002982
     atom   45 type  4   force =    -0.00016741   -0.00037190   -0.00001249
     atom   46 type  4   force =     0.00016741    0.00037190    0.00001249
     atom   47 type  4   force =     0.00016741   -0.00037190    0.00001249
     atom   48 type  4   force =    -0.00016741    0.00037190   -0.00001249
     The Hubbard contrib.    to forces
     atom    1 type  1   force =     0.00000000    0.00000000    0.00000000
     atom    2 type  1   force =     0.00000000    0.00000000    0.00000000
[...]
     atom   20 type  2   force =    -2.07607449   -0.13722186   -0.20858918
     atom   21 type  2   force =    -0.89934692   -1.91008811    0.11377868
     atom   22 type  2   force =     0.89934692    1.91008811   -0.11377868
     atom   23 type  2   force =     0.89934692   -1.91008811   -0.11377868
     atom   24 type  2   force =    -0.89934692    1.91008811    0.11377868
     atom   25 type  2   force =     2.28261133   -0.05633126    0.17990252
     atom   26 type  2   force =    -2.28261133    0.05633126   -0.17990252
     atom   27 type  2   force =    -2.28261133   -0.05633126   -0.17990252
     atom   28 type  2   force =     2.28261133    0.05633126    0.17990252
     atom   29 type  2   force =    -1.78935554    1.28425695   -0.35018008
     atom   30 type  2   force =     1.78935554   -1.28425695    0.35018008
     atom   31 type  2   force =     1.78935554    1.28425695    0.35018008
     atom   32 type  2   force =    -1.78935554   -1.28425695   -0.35018008
     atom   33 type  3   force =    -3.56759700   -3.63645109   -0.48638339
     atom   34 type  3   force =     3.56759700    3.63645109    0.48638339
     atom   35 type  3   force =     3.56759700   -3.63645109    0.48638339
     atom   36 type  3   force =    -3.56759700    3.63645109   -0.48638339
     atom   37 type  3   force =     3.54446761    0.01951622   -0.03499706
     atom   38 type  3   force =    -3.54446761   -0.01951622    0.03499706
     atom   39 type  3   force =    -3.54446761    0.01951622    0.03499706
     atom   40 type  3   force =     3.54446761   -0.01951622   -0.03499706
     atom   41 type  4   force =     5.69677947   -8.74867613    0.72482122
     atom   42 type  4   force =    -5.69677947    8.74867613   -0.72482122
     atom   43 type  4   force =    -5.69677947   -8.74867613   -0.72482122
     atom   44 type  4   force =     5.69677947    8.74867613    0.72482122
     atom   45 type  4   force =     1.34988230    6.88913824   -0.78802331
     atom   46 type  4   force =    -1.34988230   -6.88913824    0.78802331
     atom   47 type  4   force =    -1.34988230    6.88913824    0.78802331
     atom   48 type  4   force =     1.34988230   -6.88913824   -0.78802331
     The core correction contribution to forces
     atom    1 type  1   force =    -0.00617060    0.00900313   -0.00071390
     atom    2 type  1   force =     0.00617060   -0.00900313    0.00071390
     atom    3 type  1   force =     0.00617060    0.00900313    0.00071390
     atom    4 type  1   force =    -0.00617060   -0.00900313   -0.00071390
     atom    5 type  1   force =     0.00721595   -0.00536232    0.00016106
     atom    6 type  1   force =    -0.00721595    0.00536232   -0.00016106
     atom    7 type  1   force =    -0.00721595   -0.00536232   -0.00016106
     atom    8 type  1   force =     0.00721595    0.00536232    0.00016106
     atom    9 type  1   force =     0.00304464    0.00087836   -0.00004195
     atom   10 type  1   force =    -0.00304464   -0.00087836    0.00004195
     atom   11 type  1   force =    -0.00304464    0.00087836    0.00004195
     atom   12 type  1   force =     0.00304464   -0.00087836   -0.00004195
     atom   13 type  1   force =     0.00538686   -0.00963863    0.00035836
     atom   14 type  1   force =    -0.00538686    0.00963863   -0.00035836
     atom   15 type  1   force =    -0.00538686   -0.00963863   -0.00035836
     atom   16 type  1   force =     0.00538686    0.00963863    0.00035836
     atom   17 type  2   force =     0.00000000    0.00000000    0.00000000
     atom   18 type  2   force =     0.00000000    0.00000000    0.00000000
     atom   19 type  2   force =     0.00000000    0.00000000    0.00000000
     atom   20 type  2   force =     0.00000000    0.00000000    0.00000000
     atom   21 type  2   force =     0.00000000    0.00000000    0.00000000
     atom   22 type  2   force =     0.00000000    0.00000000    0.00000000
     atom   23 type  2   force =     0.00000000    0.00000000    0.00000000
     atom   24 type  2   force =     0.00000000    0.00000000    0.00000000
     atom   25 type  2   force =     0.00000000    0.00000000    0.00000000
     atom   26 type  2   force =     0.00000000    0.00000000    0.00000000
     atom   27 type  2   force =     0.00000000    0.00000000    0.00000000
     atom   28 type  2   force =     0.00000000    0.00000000    0.00000000
     atom   29 type  2   force =     0.00000000    0.00000000    0.00000000
     atom   30 type  2   force =     0.00000000    0.00000000    0.00000000
     atom   31 type  2   force =     0.00000000    0.00000000    0.00000000
     atom   32 type  2   force =     0.00000000    0.00000000    0.00000000
     atom   33 type  3   force =     0.00112321    0.00283396    0.00010429
     atom   34 type  3   force =    -0.00112321   -0.00283396   -0.00010429
     atom   35 type  3   force =    -0.00112321    0.00283396   -0.00010429
     atom   36 type  3   force =     0.00112321   -0.00283396    0.00010429
     atom   37 type  3   force =    -0.00235440   -0.00087168    0.00006283
     atom   38 type  3   force =     0.00235440    0.00087168   -0.00006283
     atom   39 type  3   force =     0.00235440   -0.00087168   -0.00006283
     atom   40 type  3   force =    -0.00235440    0.00087168    0.00006283
     atom   41 type  4   force =    -0.00026307    0.00034606   -0.00002394
     atom   42 type  4   force =     0.00026307   -0.00034606    0.00002394
     atom   43 type  4   force =     0.00026307    0.00034606    0.00002394
     atom   44 type  4   force =    -0.00026307   -0.00034606   -0.00002394
     atom   45 type  4   force =    -0.00017414   -0.00037116   -0.00000092
     atom   46 type  4   force =     0.00017414    0.00037116    0.00000092
     atom   47 type  4   force =     0.00017414   -0.00037116    0.00000092
     atom   48 type  4   force =    -0.00017414    0.00037116   -0.00000092
     The Hubbard contrib.    to forces
     atom    1 type  1   force =     0.00000000    0.00000000    0.00000000
     atom    2 type  1   force =     0.00000000    0.00000000    0.00000000
     atom    3 type  1   force =     0.00000000    0.00000000    0.00000000
     atom    4 type  1   force =     0.00000000    0.00000000    0.00000000
     atom    5 type  1   force =     0.00000000    0.00000000    0.00000000
     atom    6 type  1   force =     0.00000000    0.00000000    0.00000000
     atom    7 type  1   force =     0.00000000    0.00000000    0.00000000
     atom    8 type  1   force =     0.00000000    0.00000000    0.00000000
     atom    9 type  1   force =     0.00000000    0.00000000    0.00000000
     atom   10 type  1   force =     0.00000000    0.00000000    0.00000000
     atom   11 type  1   force =     0.00000000    0.00000000    0.00000000
     atom   12 type  1   force =     0.00000000    0.00000000    0.00000000
     atom   13 type  1   force =     0.00000000    0.00000000    0.00000000
     atom   14 type  1   force =     0.00000000    0.00000000    0.00000000
     atom   15 type  1   force =     0.00000000    0.00000000    0.00000000
     atom   16 type  1   force =     0.00000000    0.00000000    0.00000000
     atom   17 type  2   force =     0.00000000    0.00000000    0.00000000
     atom   18 type  2   force =     0.00000000    0.00000000    0.00000000
     atom   19 type  2   force =     0.00000000    0.00000000    0.00000000
     atom   20 type  2   force =     0.00000000    0.00000000    0.00000000
     atom   21 type  2   force =     0.00000000    0.00000000    0.00000000
     atom   22 type  2   force =     0.00000000    0.00000000    0.00000000
     atom   23 type  2   force =     0.00000000    0.00000000    0.00000000
     atom   24 type  2   force =     0.00000000    0.00000000    0.00000000
     atom   25 type  2   force =     0.00000000    0.00000000    0.00000000
     atom   26 type  2   force =     0.00000000    0.00000000    0.00000000
     atom   27 type  2   force =     0.00000000    0.00000000    0.00000000
     atom   28 type  2   force =     0.00000000    0.00000000    0.00000000
     atom   29 type  2   force =     0.00000000    0.00000000    0.00000000
     atom   30 type  2   force =     0.00000000    0.00000000    0.00000000
     atom   31 type  2   force =     0.00000000    0.00000000    0.00000000
     atom   32 type  2   force =     0.00000000    0.00000000    0.00000000
     atom   33 type  3   force =     0.00000000    0.00000000    0.00000000
     atom   34 type  3   force =     0.00000000    0.00000000    0.00000000
     atom   35 type  3   force =     0.00000000    0.00000000    0.00000000
     atom   36 type  3   force =     0.00000000    0.00000000    0.00000000
     atom   37 type  3   force =     0.00000000    0.00000000    0.00000000
     atom   38 type  3   force =     0.00000000    0.00000000    0.00000000
     atom   39 type  3   force =     0.00000000    0.00000000    0.00000000
     atom   40 type  3   force =     0.00000000    0.00000000    0.00000000
     atom   41 type  4   force =     0.00000000    0.00000000    0.00000000
     atom   42 type  4   force =     0.00000000    0.00000000    0.00000000
     atom   43 type  4   force =     0.00000000    0.00000000    0.00000000
     atom   44 type  4   force =     0.00000000    0.00000000    0.00000000
     atom   45 type  4   force =     0.00000000    0.00000000    0.00000000
     atom   46 type  4   force =     0.00000000    0.00000000    0.00000000
     atom   47 type  4   force =     0.00000000    0.00000000    0.00000000
     atom   48 type  4   force =     0.00000000    0.00000000    0.00000000
     The SCF correction term to forces
     atom    1 type  1   force =    -0.00000016    0.00000004   -0.00000005
     atom    2 type  1   force =     0.00000016   -0.00000004    0.00000005
     atom    3 type  1   force =     0.00000016    0.00000004    0.00000005
     atom    4 type  1   force =    -0.00000016   -0.00000004   -0.00000005
     atom    5 type  1   force =    -0.00000021   -0.00000016   -0.00000008
     atom    6 type  1   force =     0.00000021    0.00000016    0.00000008
     atom    7 type  1   force =     0.00000021   -0.00000016    0.00000008
     atom    8 type  1   force =    -0.00000021    0.00000016   -0.00000008
     atom    9 type  1   force =    -0.00000014   -0.00000012   -0.00000006
     atom   10 type  1   force =     0.00000014    0.00000012    0.00000006
     atom   11 type  1   force =     0.00000014   -0.00000012    0.00000006
     atom   12 type  1   force =    -0.00000014    0.00000012   -0.00000006
     atom   13 type  1   force =     0.00000004    0.00000012   -0.00000003
     atom   14 type  1   force =    -0.00000004   -0.00000012    0.00000003
     atom   15 type  1   force =    -0.00000004    0.00000012    0.00000003
     atom   16 type  1   force =     0.00000004   -0.00000012   -0.00000003
     atom   17 type  2   force =     0.00000003    0.00000003   -0.00000000
     atom   18 type  2   force =    -0.00000003   -0.00000003    0.00000000
     atom   19 type  2   force =    -0.00000003    0.00000003    0.00000000
     atom   20 type  2   force =     0.00000003   -0.00000003   -0.00000000
     atom   21 type  2   force =     0.00000001    0.00000003    0.00000000
     atom   22 type  2   force =    -0.00000001   -0.00000003   -0.00000000
     atom   23 type  2   force =    -0.00000001    0.00000003   -0.00000000
     atom   24 type  2   force =     0.00000001   -0.00000003    0.00000000
     atom   25 type  2   force =    -0.00000000    0.00000000   -0.00000001
     atom   26 type  2   force =     0.00000000   -0.00000000    0.00000001
     atom   27 type  2   force =     0.00000000    0.00000000    0.00000001
     atom   28 type  2   force =    -0.00000000   -0.00000000   -0.00000001
     atom   29 type  2   force =    -0.00000000   -0.00000004   -0.00000001
     atom   30 type  2   force =     0.00000000    0.00000004    0.00000001
     atom   31 type  2   force =     0.00000000   -0.00000004    0.00000001
     atom   32 type  2   force =    -0.00000000    0.00000004   -0.00000001
     atom   33 type  3   force =    -0.00000019    0.00000025   -0.00000005
     atom   34 type  3   force =     0.00000019   -0.00000025    0.00000005
     atom   35 type  3   force =     0.00000019    0.00000025    0.00000005
     atom   36 type  3   force =    -0.00000019   -0.00000025   -0.00000005
     atom   37 type  3   force =    -0.00000030    0.00000009   -0.00000012
     atom   38 type  3   force =     0.00000030   -0.00000009    0.00000012
     atom   39 type  3   force =     0.00000030    0.00000009    0.00000012
     atom   40 type  3   force =    -0.00000030   -0.00000009   -0.00000012
     atom   41 type  4   force =     0.00000016   -0.00000039    0.00000002
     atom   42 type  4   force =    -0.00000016    0.00000039   -0.00000002
     atom   43 type  4   force =    -0.00000016   -0.00000039   -0.00000002
     atom   44 type  4   force =     0.00000016    0.00000039    0.00000002
     atom   45 type  4   force =    -0.00000016   -0.00000002   -0.00000008
     atom   46 type  4   force =     0.00000016    0.00000002    0.00000008
     atom   47 type  4   force =     0.00000016   -0.00000002    0.00000008
     atom   48 type  4   force =    -0.00000016    0.00000002   -0.00000008

     Total force =     0.005100     Total SCF correction =     0.000002


     Computing stress (Cartesian axis) and pressure

          total   stress  (Ry/bohr**3)                   (kbar)     P=       -0.15
  -0.00000252   0.00000000  -0.00000118           -0.37        0.00       -0.17
   0.00000000  -0.00000155   0.00000000            0.00       -0.23        0.00
  -0.00000118   0.00000000   0.00000098           -0.17        0.00        0.14

     kinetic stress (kbar)   9068.65      0.00    -33.33
                                0.00   8761.78      0.00
                              -33.33      0.00  10087.64

     local   stress (kbar) -17530.53      0.00    964.05
                                0.00 -22358.52     -0.00
                              964.05     -0.00   5980.83

     nonloc. stress (kbar)   3352.99      0.00      2.82
                                0.00   3299.61      0.00
                                2.82      0.00   3260.12

     hartree stress (kbar)   6422.63     -0.00   -546.27
                               -0.00   8069.89      0.00
                             -546.27      0.00  -1243.07

     exc-cor stress (kbar)  -1663.94     -0.00      1.60
                               -0.00  -1656.85      0.00
                                1.60      0.00  -1724.40

     corecor stress (kbar)   -561.95      0.00     -0.32
                                0.00   -562.29     -0.00
                               -0.32     -0.00   -552.28

     ewald   stress (kbar)    911.78     -0.00   -388.72
                               -0.00   4446.15      0.00
                             -388.72      0.00 -15808.69

     hubbard stress (kbar)      0.00      0.00      0.00
                                0.00      0.00      0.00
                                0.00      0.00      0.00

     DFT-D   stress (kbar)      0.00      0.00      0.00
                                0.00      0.00      0.00
                                0.00      0.00      0.00

     XDM     stress (kbar)      0.00      0.00      0.00
                                0.00      0.00      0.00
                                0.00      0.00      0.00

     dft-nl  stress (kbar)      0.00      0.00      0.00
                                0.00      0.00      0.00
                                0.00      0.00      0.00

     TS-vdW  stress (kbar)      0.00      0.00      0.00
                                0.00      0.00      0.00
                                0.00      0.00      0.00

     MDB     stress (kbar)      0.00      0.00      0.00
                                0.00      0.00      0.00
                                0.00      0.00      0.00

     3D-RISM stress (kbar)      0.00      0.00      0.00
                                0.00      0.00      0.00
                                0.00      0.00      0.00


     Writing all to output data dir /home/rr/calc_QE/uracil/opt/TMP/uracil.save/
 
     init_run     :      2.81s CPU      3.33s WALL (       2 calls)
     electrons    :   3311.53s CPU   4244.41s WALL (      44 calls)
     update_pot   :     43.14s CPU     43.85s WALL (      42 calls)
     forces       :     36.13s CPU     37.54s WALL (      44 calls)
     stress       :     87.52s CPU     89.06s WALL (      44 calls)

     Called by init_run:
     wfcinit      :      1.09s CPU      1.48s WALL (       2 calls)
     wfcinit:atom :      0.01s CPU      0.01s WALL (       4 calls)
     wfcinit:wfcr :      1.04s CPU      1.39s WALL (       4 calls)
     potinit      :      0.54s CPU      0.60s WALL (       2 calls)
     hinit0       :      0.90s CPU      0.94s WALL (       2 calls)

     Called by electrons:
     c_bands      :   3056.12s CPU   3883.37s WALL (    1415 calls)
     sum_band     :    190.35s CPU    272.82s WALL (    1415 calls)
     v_of_rho     :     20.33s CPU     25.34s WALL (    1458 calls)
     v_h          :      1.22s CPU      1.82s WALL (    1458 calls)
     v_xc         :     20.52s CPU     25.21s WALL (    1546 calls)
     newd         :      6.10s CPU      7.41s WALL (    1458 calls)
     PAW_pot      :     26.96s CPU     36.97s WALL (    1500 calls)
     mix_rho      :      5.90s CPU      6.64s WALL (    1415 calls)

     Called by c_bands:
     init_us_2    :     25.90s CPU     26.29s WALL (    5924 calls)
     init_us_2:cp :     25.84s CPU     26.25s WALL (    5924 calls)
     cegterg      :   2896.56s CPU   3684.59s WALL (    2839 calls)

     Called by sum_band:
     sum_band:wei :      0.27s CPU      0.38s WALL (    1415 calls)
     sum_band:loo :    178.01s CPU    250.51s WALL (    1415 calls)
     sum_band:buf :      3.78s CPU      3.90s WALL (    2830 calls)
     sum_band:ini :     10.62s CPU     10.67s WALL (    2830 calls)
     sum_band:cal :     33.86s CPU     36.40s WALL (    2914 calls)
     sum_band:bec :      0.66s CPU      0.77s WALL (    2914 calls)
     addusdens    :      6.31s CPU      9.31s WALL (    1415 calls)
     addusd:skk   :      0.37s CPU      0.45s WALL (    5660 calls)
     addusd:dgemm :      0.85s CPU      0.95s WALL (    5660 calls)
     addusd:qvan2 :      2.78s CPU      2.85s WALL (    5660 calls)

     Called by *egterg:
     cdiaghg      :    497.33s CPU    499.90s WALL (   21794 calls)
     cegterg:over :    178.43s CPU    199.35s WALL (   19050 calls)
     cegterg:upda :    100.84s CPU    101.37s WALL (   19050 calls)
     cegterg:last :    222.86s CPU    223.15s WALL (   10019 calls)
     h_psi        :   1643.25s CPU   2388.21s WALL (   21893 calls)
     s_psi        :    178.76s CPU    179.35s WALL (   21893 calls)
     g_psi        :      6.20s CPU      6.37s WALL (   19050 calls)

     Called by h_psi:
     h_psi:calbec :    178.09s CPU    193.40s WALL (   21893 calls)
     vloc_psi     :   1255.69s CPU   1983.78s WALL (   21893 calls)
     add_vuspsi   :    203.79s CPU    204.63s WALL (   21893 calls)

     General routines
     calbec       :    218.84s CPU    237.34s WALL (   25247 calls)
     fft          :     11.76s CPU     19.06s WALL (   17181 calls)
     ffts         :      1.05s CPU      1.73s WALL (    1415 calls)
     fftw         :   1335.19s CPU   2111.32s WALL ( 2043750 calls)
 
     Parallel routines

     PAW routines
     PAW_pot      :     26.96s CPU     36.97s WALL (    1500 calls)
     PAW_symme    :      0.58s CPU      1.48s WALL (    2915 calls)
 
     PWSCF        :  58m 7.92s CPU      1h13m WALL

 
   This run was terminated on:  19: 5: 7  22Jan2026            

=------------------------------------------------------------------------------=
   JOB DONE.
=------------------------------------------------------------------------------=
