
                                 *****************
                                 * O   R   C   A *
                                 *****************

                                            #,                                       
                                            ###                                      
                                            ####                                     
                                            #####                                    
                                            ######                                   
                                           ########,                                 
                                     ,,################,,,,,                         
                               ,,#################################,,                 
                          ,,##########################################,,             
                       ,#########################################, ''#####,          
                    ,#############################################,,   '####,        
                  ,##################################################,,,,####,       
                ,###########''''           ''''###############################       
              ,#####''   ,,,,##########,,,,          '''####'''          '####       
            ,##' ,,,,###########################,,,                        '##       
           ' ,,###''''                  '''############,,,                           
         ,,##''                                '''############,,,,        ,,,,,,###''
      ,#''                                            '''#######################'''  
     '                                                          ''''####''''         
             ,#######,   #######,   ,#######,      ##                                
            ,#'     '#,  ##    ##  ,#'     '#,    #''#        ,####,   ,####,        
            ##       ##  ##   ,#'  ##            #'  '#       #'       #'  '#        
            ##       ##  #######   ##           ,######,      #####,   #    #        
            '#,     ,#'  ##    ##  '#,     ,#' ,#      #,     #,   #   #,  ,#        
             '#######'   ##     ##  '#######'  #'      '#     '####' # '####'        



                #########################################################
                #                        -***-                          #
                #          Department of theory and spectroscopy        #
                #                                                       #
                #                      Frank Neese                      #
                #                                                       #
                #     Directorship, Architecture, Infrastructure        #
                #                    SHARK, DRIVERS                     #
                #        Core code/Algorithms in most modules           #
                #                                                       #
                #        Max Planck Institute fuer Kohlenforschung      #
                #                Kaiser Wilhelm Platz 1                 #
                #                 D-45470 Muelheim/Ruhr                 #
                #                      Germany                          #
                #                                                       #
                #                  All rights reserved                  #
                #                        -***-                          #
                #########################################################


                         Program Version 6.0.0  -   RELEASE  -


 With contributions from (in alphabetic order):
   Daniel Aravena         : Magnetic Suceptibility
   Michael Atanasov       : Ab Initio Ligand Field Theory (pilot matlab implementation)
   Alexander A. Auer      : GIAO ZORA, VPT2 properties, NMR spectrum
   Ute Becker             : All parallelization in ORCA, NUMFREQ, NUMCALC
   Giovanni Bistoni       : ED, misc. LED, open-shell LED, HFLD
   Martin Brehm           : Molecular dynamics
   Dmytro Bykov           : pre 5.0 version of the SCF Hessian
   Marcos Casanova-Páez   : Triplet and SCS-CIS(D). UHF-(DLPNO)-IP/EA/STEOM-CCSD. UHF-CVS-IP/STEOM-CCSD
   Vijay G. Chilkuri      : MRCI spin determinant printing, contributions to CSF-ICE
   Pauline Colinet        : FMM embedding
   Dipayan Datta          : RHF DLPNO-CCSD density
   Achintya Kumar Dutta   : EOM-CC, STEOM-CC
   Nicolas Foglia         : Exact transition moments, OPA infrastructure, MCD improvements
   Dmitry Ganyushin       : Spin-Orbit,Spin-Spin,Magnetic field MRCI
   Miquel Garcia          : C-PCM and meta-GGA Hessian, CCSD/C-PCM, Gaussian charge scheme
   Tiago L. C. Gouveia    : GS-ROHF, GS-ROCIS
   Yang Guo               : DLPNO-NEVPT2, F12-NEVPT2, CIM, IAO-localization
   Andreas Hansen         : Spin unrestricted coupled pair/coupled cluster methods
   Ingolf Harden          : AUTO-CI MPn and infrastructure 
   Benjamin Helmich-Paris : MC-RPA, TRAH-(SCF,CASSCF), AVAS, COSX integrals, SCF dyn. polar.
   Lee Huntington         : MR-EOM, pCC
   Robert Izsak           : Overlap fitted RIJCOSX, COSX-SCS-MP3, EOM
   Riya Kayal             : Wick's Theorem for AUTO-CI, AUTO-CI UHF-CCSDT
   Emily Kempfer          : AUTO-CI, RHF CISDT and CCSDT
   Christian Kollmar      : KDIIS, OOCD, Brueckner-CCSD(T), CCSD density, CASPT2, CASPT2-K, improved NEVPT2
   Axel Koslowski         : Symmetry handling
   Simone Kossmann        : Meta GGA functionals, TD-DFT gradient, OOMP2, (MP2 Hessian; deprecated post 5.0)
   Lucas Lang             : DCDCAS
   Marvin Lechner         : AUTO-CI (C++ implementation), FIC-MRCC
   Spencer Leger          : CASSCF response
   Dagmar Lenk            : GEPOL surface, SMD, ORCA-2-JSON
   Dimitrios Liakos       : Extrapolation schemes; Compound Job, initial MDCI parallelization
   Dimitrios Manganas     : Further ROCIS development; embedding schemes. LFT, Crystal Embedding
   Dimitrios Pantazis     : SARC Basis sets
   Anastasios Papadopoulos: AUTO-CI, single reference methods and gradients
   Taras Petrenko         : pre 6.0 DFT Hessian and TD-DFT gradient, (ASA, deprecated), ECA, 1-Electron XAS/XES, NRVS
   Peter Pinski           : DLPNO-MP2, DLPNO-MP2 Gradient
   Christoph Reimann      : Effective Core Potentials
   Marius Retegan         : Local ZFS, SOC
   Christoph Riplinger    : Optimizer, TS searches, QM/MM, DLPNO-CCSD(T), (RO)-DLPNO pert. Triples
   Michael Roemelt        : Original ROCIS implementation
   Masaaki Saitow         : Open-shell DLPNO-CCSD energy and density
   Barbara Sandhoefer     : DKH picture change effects
   Kantharuban Sivalingam : CASSCF convergence/infrastructure, NEVPT2 and variants, FIC-MRCI
   Bernardo de Souza      : ESD, SOC TD-DFT
   Georgi Stoychev        : AutoAux, RI-MP2 NMR, DLPNO-MP2 response, X2C
   Van Anh Tran           : RI-MP2 g-tensors
   Willem Van den Heuvel  : Paramagnetic NMR
   Zikuan Wang            : NOTCH, Electric field optimization 
   Frank Wennmohs         : Technical directorship and infrastructure
   Hang Xu                : AUTO-CI-Response properties 


 We gratefully acknowledge several colleagues who have allowed us to
 interface, adapt or use parts of their codes:
   Stefan Grimme, W. Hujo, H. Kruse, P. Pracht,  : VdW corrections, initial TS optimization,
                  C. Bannwarth, S. Ehlert,         DFT functionals, gCP, sTDA/sTD-DF
                  L. Wittmann, M. Mueller
   Ed Valeev, F. Pavosevic, A. Kumar             : LibInt (2-el integral package), F12 methods
   Garnet Chan, S. Sharma, J. Yang, R. Olivares  : DMRG
   Ulf Ekstrom                                   : XCFun DFT Library
   Mihaly Kallay                                 : mrcc  (arbitrary order and MRCC methods)
   Frank Weinhold                                : gennbo (NPA and NBO analysis)
   Simon Mueller                                 : openCOSMO-RS
   Christopher J. Cramer and Donald G. Truhlar   : smd solvation model
   Lars Goerigk                                  : TD-DFT with DH, B97 family of functionals
   V. Asgeirsson, H. Jonsson                     : NEB implementation
   FAccTs GmbH                                   : IRC, NEB, NEB-TS, DLPNO-Multilevel, CI-OPT
                                                   MM, QMMM, 2- and 3-layer-ONIOM, Crystal-QMMM,
                                                   LR-CPCM, SF, NACMEs, symmetry and pop. for TD-DFT,
                                                   nearIR, NL-DFT gradient (VV10), updates on ESD,
                                                   ML-optimized integration grids, MBIS, APM,
                                                   GOAT, DOCKER, SOLVATOR, interface openCOSMO-RS
   S Lehtola, MJT Oliveira, MAL Marques          : LibXC Library
   Liviu Ungur et al                             : ANISO software


 Your calculation uses the libint2 library for the computation of 2-el integrals
 For citations please refer to: http://libint.valeyev.net

 Your ORCA version has been built with support for libXC version: 6.2.2
 For citations please refer to: https://libxc.gitlab.io

 This ORCA versions uses:
   CBLAS   interface :  Fast vector & matrix operations
   LAPACKE interface :  Fast linear algebra routines
   SCALAPACK package :  Parallel linear algebra routines
   Shared memory     :  Shared parallel matrices




***************************************
The coordinates will be read from file: Mol_CCO_UFF.xyz
***************************************


Your calculation utilizes the atom-pairwise dispersion correction
based on EEQ partial charges (D4)


================================================================================

----- Orbital basis set information -----
Your calculation utilizes the basis: 6-31+G(d,p)
   H-He, Li-Ne : W. J. Hehre, R. Ditchfield and J.A. Pople, J. Chem. Phys. 56, 2257 (1972).
                 Note: He and Ne are unpublished basis sets taken from the Gaussian program.
                 Note: Li and B from J. D. Dill and J. A. Pople, J. Chem. Phys. 62, 2921 (1975).
   Na - Ar     : M. M. Francl, W. J. Pietro, W. J. Hehre, J. S. Binkley, M. S. Gordon, 
                 D. J. DeFrees and J. A. Pople, J. Chem. Phys. 77, 3654 (1982).
   K - Zn      : V. A. Rassolov, J. A. Pople, M. A. Ratner, and T. L. Windus, J. Chem. Phys. 109, 1223 (1998).
   Additional Pol./Diff. from the 6-311G equivalent.

----- AuxJ basis set information -----
Your calculation utilizes the auxiliary basis: def2/J
   F. Weigend, Phys. Chem. Chem. Phys. 8, 1057 (2006).

================================================================================
                                        WARNINGS
                       Please study these warnings very carefully!
================================================================================


WARNING: Geometry Optimization
  ===> : Switching off AutoStart
         For restart on a previous wavefunction, please use MOREAD

================================================================================
                                       INPUT FILE
================================================================================
NAME = opt.com
|  1> ! B3LYP D4 6-31+G(d,p) def2/J RIJCOSX Opt Freq
|  2> 
|  3> * xyzFILE 0 1 Mol_CCO_UFF.xyz
|  4> 
|  5>                          ****END OF INPUT****
================================================================================

                       *****************************
                       * Geometry Optimization Run *
                       *****************************

Geometry optimization settings:
Update method            Update   .... BFGS
Choice of coordinates    CoordSys .... (2022) Redundant Internals
Initial Hessian          InHess   .... Almloef's Model
Max. no of cycles        MaxIter  .... 50

Convergence Tolerances:
Energy Change            TolE     ....  5.0000e-06 Eh
Max. Gradient            TolMAXG  ....  3.0000e-04 Eh/bohr
RMS Gradient             TolRMSG  ....  1.0000e-04 Eh/bohr
Max. Displacement        TolMAXD  ....  4.0000e-03 bohr
RMS Displacement         TolRMSD  ....  2.0000e-03 bohr
Strict Convergence                .... False

------------------------------------------------------------------------------
                        ORCA OPTIMIZATION COORDINATE SETUP
------------------------------------------------------------------------------

The optimization will be done in redundant internal coordinates (2022)
Making redundant internal coordinates   ...  (2022 redundants) done
Evaluating the initial hessian          ...  (Almloef) done
Evaluating the coordinates              ...  done
Calculating the B-matrix                .... done
Calculating the G-matrix                .... done
Diagonalizing the G-matrix              .... done
The first mode is                       ....    9
The number of degrees of freedom        ....   21

    -----------------------------------------------------------------
                    Redundant Internal Coordinates


    -----------------------------------------------------------------
         Definition                    Initial Value    Approx d2E/dq
    -----------------------------------------------------------------
      1. B(C   1,C   0)                  1.5238         0.382229   
      2. B(O   2,C   1)                  1.4015         0.536459   
      3. B(H   3,C   0)                  1.1106         0.333842   
      4. B(H   4,C   0)                  1.1106         0.333794   
      5. B(H   5,C   0)                  1.1104         0.334112   
      6. B(H   6,C   1)                  1.1104         0.334046   
      7. B(H   7,C   1)                  1.1137         0.330115   
      8. B(H   8,O   2)                  0.9929         0.460741   
      9. A(C   1,C   0,H   5)          109.6940         0.321565   
     10. A(H   3,C   0,H   4)          109.2079         0.284032   
     11. A(H   3,C   0,H   5)          108.8639         0.284074   
     12. A(C   1,C   0,H   4)          110.0122         0.321515   
     13. A(C   1,C   0,H   3)          110.0983         0.321523   
     14. A(H   4,C   0,H   5)          108.9377         0.284068   
     15. A(H   6,C   1,H   7)          108.0537         0.283571   
     16. A(C   0,C   1,O   2)          110.3617         0.385853   
     17. A(O   2,C   1,H   7)          110.5633         0.337367   
     18. A(C   0,C   1,H   7)          109.9674         0.320933   
     19. A(O   2,C   1,H   6)          108.7644         0.338033   
     20. A(C   0,C   1,H   6)          109.0755         0.321555   
     21. A(C   1,O   2,H   8)          106.6130         0.353712   
     22. D(O   2,C   1,C   0,H   4)    -58.5644         0.011637   
     23. D(H   6,C   1,C   0,H   3)   -178.7269         0.011637   
     24. D(O   2,C   1,C   0,H   3)     61.8409         0.011637   
     25. D(H   6,C   1,C   0,H   4)     60.8677         0.011637   
     26. D(H   6,C   1,C   0,H   5)    -58.9483         0.011637   
     27. D(O   2,C   1,C   0,H   5)   -178.3805         0.011637   
     28. D(H   8,O   2,C   1,C   0)    -76.6959         0.022880   
     29. D(H   8,O   2,C   1,H   7)     45.1923         0.022880   
     30. D(H   8,O   2,C   1,H   6)    163.6837         0.022880   
    -----------------------------------------------------------------

Number of atoms                         .... 9
Number of degrees of freedom            .... 30


         *************************************************************
         *                GEOMETRY OPTIMIZATION CYCLE   1            *
         *************************************************************
---------------------------------
CARTESIAN COORDINATES (ANGSTROEM)
---------------------------------
  C     -0.887599   -0.011041   -0.273755
  C      0.475868    0.359295    0.296921
  O      1.486865   -0.370636   -0.342824
  H     -1.096326   -1.087231   -0.095700
  H     -0.909770    0.189652   -1.365896
  H     -1.676828    0.594210    0.219961
  H      0.657061    1.442116    0.130326
  H      0.492515    0.171437    1.394502
  H      1.458214   -1.287803    0.036464

----------------------------
CARTESIAN COORDINATES (A.U.)
----------------------------
  NO LB      ZA    FRAG     MASS         X           Y           Z
   0 C     6.0000    0    12.011   -1.677319   -0.020864   -0.517322
   1 C     6.0000    0    12.011    0.899260    0.678969    0.561099
   2 O     8.0000    0    15.999    2.809768   -0.700401   -0.647843
   3 H     1.0000    0     1.008   -2.071756   -2.054569   -0.180847
   4 H     1.0000    0     1.008   -1.719216    0.358390   -2.581169
   5 H     1.0000    0     1.008   -3.168746    1.122894    0.415666
   6 H     1.0000    0     1.008    1.241665    2.725204    0.246280
   7 H     1.0000    0     1.008    0.930718    0.323969    2.635227
   8 H     1.0000    0     1.008    2.755625   -2.433595    0.068907

--------------------------------
INTERNAL COORDINATES (ANGSTROEM)
--------------------------------
 C      0   0   0     0.000000000000     0.00000000     0.00000000
 C      1   0   0     1.523765766107     0.00000000     0.00000000
 O      2   1   0     1.401494867559   110.36168190     0.00000000
 H      1   2   3     1.110610399579   110.09833392    61.84093833
 H      1   2   3     1.110648998276   110.01224933   301.43561297
 H      1   2   3     1.110390326011   109.69399049   181.61953811
 H      2   1   3     1.110444107245   109.07546470   119.43211600
 H      2   1   3     1.113665929412   109.96743697   237.76057867
 H      3   2   1     0.992912671202   106.61297006   283.30410399

---------------------------
INTERNAL COORDINATES (A.U.)
---------------------------
 C      0   0   0     0.000000000000     0.00000000     0.00000000
 C      1   0   0     2.879499990188     0.00000000     0.00000000
 O      2   1   0     2.648441477783   110.36168190     0.00000000
 H      1   2   3     2.098749496690   110.09833392    61.84093833
 H      1   2   3     2.098822437655   110.01224933   301.43561297
 H      1   2   3     2.098333617916   109.69399049   181.61953811
 H      2   1   3     2.098435249720   109.07546470   119.43211600
 H      2   1   3     2.104523611268   109.96743697   237.76057867
 H      3   2   1     1.876333023472   106.61297006   283.30410399

---------------------
BASIS SET INFORMATION
---------------------
There are 3 groups of distinct atoms

 Group   1 Type C   : 11s5p1d contracted to 4s3p1d pattern {6311/311/1}
 Group   2 Type O   : 11s5p1d contracted to 4s3p1d pattern {6311/311/1}
 Group   3 Type H   : 4s1p contracted to 2s1p pattern {31/1}

Atom   0C    basis set group =>   1
Atom   1C    basis set group =>   1
Atom   2O    basis set group =>   2
Atom   3H    basis set group =>   3
Atom   4H    basis set group =>   3
Atom   5H    basis set group =>   3
Atom   6H    basis set group =>   3
Atom   7H    basis set group =>   3
Atom   8H    basis set group =>   3
---------------------------------
AUXILIARY/J BASIS SET INFORMATION
---------------------------------
There are 3 groups of distinct atoms

 Group   1 Type C   : 12s5p4d2f1g contracted to 6s4p3d1f1g pattern {711111/2111/211/2/1}
 Group   2 Type O   : 12s5p4d2f1g contracted to 6s4p3d1f1g pattern {711111/2111/211/2/1}
 Group   3 Type H   : 5s2p1d contracted to 3s1p1d pattern {311/2/1}

Atom   0C    basis set group =>   1
Atom   1C    basis set group =>   1
Atom   2O    basis set group =>   2
Atom   3H    basis set group =>   3
Atom   4H    basis set group =>   3
Atom   5H    basis set group =>   3
Atom   6H    basis set group =>   3
Atom   7H    basis set group =>   3
Atom   8H    basis set group =>   3
------------------------------------------------------------------------------
                             ORCA STARTUP CALCULATIONS
                           -- RI-GTO INTEGRALS CHOSEN --
------------------------------------------------------------------------------
------------------------------------------------------------------------------
                   ___                                                        
                  /   \      - P O W E R E D   B Y -                         
                 /     \                                                     
                 |  |  |   _    _      __       _____    __    __             
                 |  |  |  | |  | |    /  \     |  _  \  |  |  /  |          
                  \  \/   | |  | |   /    \    | | | |  |  | /  /          
                 / \  \   | |__| |  /  /\  \   | |_| |  |  |/  /          
                |  |  |   |  __  | /  /__\  \  |    /   |      \           
                |  |  |   | |  | | |   __   |  |    \   |  |\   \          
                \     /   | |  | | |  |  |  |  | |\  \  |  | \   \       
                 \___/    |_|  |_| |__|  |__|  |_| \__\ |__|  \__/        
                                                                              
                      - O R C A' S   B I G   F R I E N D -                    
                                      &                                       
                       - I N T E G R A L  F E E D E R -                       
                                                                              
 v1 FN, 2020, v2 2021, v3 2022-2024                                           
------------------------------------------------------------------------------


----------------------
SHARK INTEGRAL PACKAGE
----------------------

Number of atoms                             ...      9
Number of basis functions                   ...     84
Number of shells                            ...     42
Maximum angular momentum                    ...      2
Integral batch strategy                     ... SHARK/LIBINT Hybrid
RI-J (if used) integral strategy            ... SPLIT-RIJ (Revised 2003 algorithm where possible)
Printlevel                                  ...      1
Contraction scheme used                     ... SEGMENTED contraction
Prescreening option                         ... SCHWARTZ
   Thresh                                   ... 2.500e-11
   Tcut                                     ... 2.500e-12
   Tpresel                                  ... 2.500e-12 
Coulomb Range Separation                    ... NOT USED
Exchange Range Separation                   ... NOT USED
Multipole approximations                    ... NOT USED
Finite Nucleus Model                        ... NOT USED
CABS basis                                  ... NOT available
Auxiliary Coulomb fitting basis             ... AVAILABLE
   # of basis functions in Aux-J            ...    213
   # of shells in Aux-J                     ...     75
   Maximum angular momentum in Aux-J        ...      4
Auxiliary J/K fitting basis                 ... NOT available
Auxiliary Correlation fitting basis         ... NOT available
Auxiliary 'external' fitting basis          ... NOT available

Checking pre-screening integrals            ... done (  0.0 sec) Dimension = 42
Check shell pair data                       ... done (  0.0 sec)
Shell pair information
Shell pair cut-off parameter TPreSel        ...   2.5e-12
Total number of shell pairs                 ...       903
Shell pairs after pre-screening             ...       901
Total number of primitive shell pairs       ...      3402
Primitive shell pairs kept                  ...      2878
          la=0 lb=0:    299 shell pairs
          la=1 lb=0:    359 shell pairs
          la=1 lb=1:    120 shell pairs
          la=2 lb=0:     72 shell pairs
          la=2 lb=1:     45 shell pairs
          la=2 lb=2:      6 shell pairs

Calculating one electron integrals          ... done (  0.0 sec)
Calculating RI/J V-Matrix + Cholesky decomp.... done (  0.0 sec)
Calculating Nuclear repulsion               ... done (  0.0 sec) ENN=     81.727588906909 Eh

Diagonalization of the overlap matrix:
Smallest eigenvalue                        ... 2.769e-04
Time for diagonalization                   ...    0.002 sec
Threshold for overlap eigenvalues          ... 1.000e-07
Number of eigenvalues below threshold      ... 0
Time for construction of square roots      ...    0.000 sec
Total time needed                          ...    0.003 sec

-------------------
DFT GRID GENERATION
-------------------

General Integration Accuracy     IntAcc      ... 4.388
Radial Grid Type                 RadialGrid  ... OptM3 with GC (2021)
Angular Grid (max. ang.)         AngularGrid ... 4 (Lebedev-302)
Angular grid pruning method      GridPruning ... 4 (adaptive)
Weight generation scheme         WeightScheme... mBecke (2022)
Basis function cutoff            BFCut       ... 1.0000e-11
Integration weight cutoff        WCut        ... 1.0000e-14
Partially contracted basis set               ... off
Rotationally invariant grid construction     ... off
Angular grids for H and He will be reduced by one unit
Diffuse basis detected: some atoms will have their outermost
                        angular grid increased by 1.

Total number of grid points                  ...    38607
Total number of batches                      ...      608
Average number of points per batch           ...       63
Average number of grid points per atom       ...     4290

--------------------
COSX GRID GENERATION
--------------------

GRIDX 1
-------
General Integration Accuracy     IntAcc      ... 3.816
Radial Grid Type                 RadialGrid  ... OptM3 with GC (2021)
Angular Grid (max. ang.)         AngularGrid ... 1 (Lebedev-50)
Angular grid pruning method      GridPruning ... 4 (adaptive)
Weight generation scheme         WeightScheme... mBecke (2022)
Basis function cutoff            BFCut       ... 1.0000e-11
Integration weight cutoff        WCut        ... 1.0000e-14
Partially contracted basis set               ... on
Rotationally invariant grid construction     ... off
Angular grids for H and He will be reduced by one unit
Diffuse basis detected: some atoms will have their outermost
                        angular grid increased by 1.

Total number of grid points                  ...     5012
Total number of batches                      ...       45
Average number of points per batch           ...      111
Average number of grid points per atom       ...      557
UseSFitting                                  ... on

GRIDX 2
-------
General Integration Accuracy     IntAcc      ... 4.020
Radial Grid Type                 RadialGrid  ... OptM3 with GC (2021)
Angular Grid (max. ang.)         AngularGrid ... 2 (Lebedev-110)
Angular grid pruning method      GridPruning ... 4 (adaptive)
Weight generation scheme         WeightScheme... mBecke (2022)
Basis function cutoff            BFCut       ... 1.0000e-11
Integration weight cutoff        WCut        ... 1.0000e-14
Partially contracted basis set               ... on
Rotationally invariant grid construction     ... off
Angular grids for H and He will be reduced by one unit
Diffuse basis detected: some atoms will have their outermost
                        angular grid increased by 1.

Total number of grid points                  ...    11327
Total number of batches                      ...       93
Average number of points per batch           ...      121
Average number of grid points per atom       ...     1259
UseSFitting                                  ... on

GRIDX 3
-------
General Integration Accuracy     IntAcc      ... 4.338
Radial Grid Type                 RadialGrid  ... OptM3 with GC (2021)
Angular Grid (max. ang.)         AngularGrid ... 3 (Lebedev-194)
Angular grid pruning method      GridPruning ... 4 (adaptive)
Weight generation scheme         WeightScheme... mBecke (2022)
Basis function cutoff            BFCut       ... 1.0000e-11
Integration weight cutoff        WCut        ... 1.0000e-14
Partially contracted basis set               ... on
Rotationally invariant grid construction     ... off
Angular grids for H and He will be reduced by one unit
Diffuse basis detected: some atoms will have their outermost
                        angular grid increased by 1.

Total number of grid points                  ...    24475
Total number of batches                      ...      196
Average number of points per batch           ...      124
Average number of grid points per atom       ...     2719
UseSFitting                                  ... on
Initializing property integral containers    ... done (  0.0 sec)

SHARK setup successfully completed in   0.3 seconds

Maximum memory used throughout the entire STARTUP-calculation: 16.5 MB
-------------------------------------------------------------------------------
                                 ORCA GUESS
                   Start orbitals & Density for SCF / CASSCF
-------------------------------------------------------------------------------

------------
SCF SETTINGS
------------
Hamiltonian:
 Density Functional     Method          .... DFT(GTOs)
 Exchange Functional    Exchange        .... B88
   X-Alpha parameter    XAlpha          ....  0.666667
   Becke's b parameter  XBeta           ....  0.004200
 Correlation Functional Correlation     .... LYP
 LDA part of GGA corr.  LDAOpt          .... VWN-5
 Gradients option       PostSCFGGA      .... off
 Hybrid DFT is turned on
   Fraction HF Exchange ScalHFX         ....  0.200000
   Scaling of DF-GGA-X  ScalDFX         ....  0.720000
   Scaling of DF-GGA-C  ScalDFC         ....  0.810000
   Scaling of DF-LDA-C  ScalLDAC        ....  1.000000
   Perturbative correction              ....  0.000000
   NL short-range parameter             ....  4.800000
 RI-approximation to the Coulomb term is turned on
   Number of AuxJ basis functions       .... 213
   RIJ-COSX (HFX calculated with COS-X)).... on


General Settings:
 Integral files         IntName         .... opt
 Hartree-Fock type      HFTyp           .... RHF
 Total Charge           Charge          ....    0
 Multiplicity           Mult            ....    1
 Number of Electrons    NEL             ....   26
 Basis Dimension        Dim             ....   84
 Nuclear Repulsion      ENuc            ....     81.7275889069 Eh

Convergence Acceleration:
 AO-DIIS                CNVDIIS         .... on
   Start iteration      DIISMaxIt       ....    12
   Startup error        DIISStart       ....  0.200000
   # of expansion vecs  DIISMaxEq       ....     5
   Bias factor          DIISBfac        ....   1.050
   Max. coefficient     DIISMaxC        ....  10.000
 MO-DIIS                CNVKDIIS        .... off
 Trust-Rad. Augm. Hess. CNVTRAH         .... auto
   Auto Start mean grad. ratio tolernc. ....  1.125000
   Auto Start start iteration           ....    50
   Auto Start num. interpolation iter.  ....    10
   Max. Number of Micro iterations      ....    24
   Max. Number of Macro iterations      .... Maxiter - #DIIS iter
   Number of Davidson start vectors     ....     2
   Converg. threshold    (grad. norm)   ....   1.000e-05
   Grad. Scal. Fac. for Micro threshold ....   0.100
   Minimum threshold for Micro iter.    ....   1.000e-02
   NR start threshold (gradient norm)   ....   1.000e-04
   Initial trust radius                 ....   0.400
   Minimum AH scaling param. (alpha)    ....   1.000
   Maximum AH scaling param. (alpha)    .... 1000.000
   Quad. conv. algorithm                .... NR
   White noise on init. David. guess    .... on
   Maximum white noise                  ....   0.010
   Pseudo random numbers                .... off
   Inactive MOs                         .... canonical
   Orbital update algorithm             .... Taylor
   Preconditioner                       .... Diag
   Full preconditioner red. dimension   ....   250
 SOSCF                  CNVSOSCF        .... on
   Start iteration      SOSCFMaxIt      ....   150
   Startup grad/error   SOSCFStart      ....  0.003300
   Hessian update       SOSCFHessUp     .... L-BFGS
 Level Shifting         CNVShift        .... on
   Level shift para.    LevelShift      ....    0.2500
   Turn off err/grad.   ShiftErr        ....    0.0010
 Zerner damping         CNVZerner       .... off
 Static damping         CNVDamp         .... on
   Fraction old density DampFac         ....    0.7000
   Max. Damping (<1)    DampMax         ....    0.9800
   Min. Damping (>=0)   DampMin         ....    0.0000
   Turn off err/grad.   DampErr         ....    0.1000

SCF Procedure:
 Maximum # iterations   MaxIter         ....   125
 SCF integral mode      SCFMode         .... Direct
   Integral package                     .... SHARK and LIBINT hybrid scheme
 Reset frequency        DirectResetFreq ....    20
 Integral Threshold     Thresh          ....  2.500e-11 Eh
 Primitive CutOff       TCut            ....  2.500e-12 Eh

Convergence Tolerance:
 Convergence Check Mode ConvCheckMode   .... Total+1el-Energy
 Convergence forced     ConvForced      .... 0
 Energy Change          TolE            ....  1.000e-08 Eh
 1-El. energy change                    ....  1.000e-05 Eh
 Orbital Gradient       TolG            ....  1.000e-05
 Orbital Rotation angle TolX            ....  1.000e-05
 DIIS Error             TolErr          ....  5.000e-07

------------------------------
INITIAL GUESS: MODEL POTENTIAL
------------------------------
Loading Hartree-Fock densities                     ... done
Calculating cut-offs                               ... done
Initializing the effective Hamiltonian             ... done
Setting up the integral package (SHARK)            ... done
Starting the Coulomb interaction                   ... done (   0.0 sec)
Making the grid                                    ... done (   0.0 sec)
Mapping shells                                     ... done
Starting the XC term evaluation                    ... done (   0.0 sec)
  promolecular density results
     # of electrons  =     25.997303573
     EX              =    -20.239007052
     EC              =     -0.845963995
     EX+EC           =    -21.084971047
Transforming the Hamiltonian                       ... done (   0.0 sec)
Diagonalizing the Hamiltonian                      ... done (   0.0 sec)
Back transforming the eigenvectors                 ... done (   0.0 sec)
Now organizing SCF variables                       ... done
                      ------------------
                      INITIAL GUESS DONE (   0.1 sec)
                      ------------------
             **** ENERGY FILE WAS UPDATED (opt.en.tmp) ****
Finished Guess after   0.1 sec
Maximum memory used throughout the entire GUESS-calculation: 8.6 MB

-------------------------------------------------------------------------------------------
                                      ORCA LEAN-SCF
                              memory conserving SCF solver
-------------------------------------------------------------------------------------------

----------------------------------------D-I-I-S--------------------------------------------
Iteration    Energy (Eh)           Delta-E    RMSDP     MaxDP     DIISErr   Damp  Time(sec)
-------------------------------------------------------------------------------------------
               ***  Starting incremental Fock matrix formation  ***
    1    -154.8263504736122513     0.00e+00  4.42e-03  7.25e-02  2.35e-01  0.700   0.5
    2    -154.8888934441131653    -6.25e-02  3.03e-03  4.02e-02  1.01e-01  0.700   0.3
                               ***Turning on AO-DIIS***
    3    -154.9120225170786682    -2.31e-02  1.11e-03  1.47e-02  3.45e-02  0.700   0.3
    4    -154.9258936215986182    -1.39e-02  1.58e-03  1.74e-02  1.47e-02  0.000   0.3
    5    -154.9568756182338802    -3.10e-02  3.88e-04  4.05e-03  6.41e-03  0.000   0.3
                              *** Initializing SOSCF ***
---------------------------------------S-O-S-C-F--------------------------------------
Iteration    Energy (Eh)           Delta-E    RMSDP     MaxDP     MaxGrad    Time(sec)
--------------------------------------------------------------------------------------
    6    -154.9570504954479588    -1.75e-04  1.58e-04  2.22e-03  1.78e-03     0.3
               *** Restarting incremental Fock matrix formation ***
    7    -154.9571186662731748    -6.82e-05  1.31e-04  2.42e-03  2.08e-04     0.5
    8    -154.9571193227349681    -6.56e-07  3.22e-05  4.92e-04  1.82e-04     0.4
    9    -154.9571203906099868    -1.07e-06  1.65e-05  2.75e-04  2.71e-05     0.4
   10    -154.9571203905689174     4.11e-11  4.35e-06  8.29e-05  3.06e-05     0.4
                 **** Energy Check signals convergence ****

               *****************************************************
               *                     SUCCESS                       *
               *           SCF CONVERGED AFTER  10 CYCLES          *
               *****************************************************

Recomputing exchange energy using gridx3       ... done (    0.800 sec)
Old exchange energy                            :     -4.136233331 Eh
New exchange energy                            :     -4.136252103 Eh
Exchange energy change after final integration :     -0.000018772 Eh
Total energy after final integration           :   -154.957139163 Eh
             **** ENERGY FILE WAS UPDATED (opt.en.tmp) ****

----------------
TOTAL SCF ENERGY
----------------

Total Energy       :       -154.95713916251782 Eh           -4216.59812 eV

Components:
Nuclear Repulsion  :         81.72758890690932 Eh            2223.92076 eV
Electronic Energy  :       -236.68470929747824 Eh           -6440.51837 eV
One Electron Energy:       -371.47198503835443 Eh          -10108.26661 eV
Two Electron Energy:        134.78727574087620 Eh            3667.74824 eV

Virial components:
Potential Energy   :       -308.81980041854888 Eh           -8403.41399 eV
Kinetic Energy     :        153.86266125603103 Eh            4186.81587 eV
Virial Ratio       :          2.00711334314350

DFT components:
N(Alpha)           :       13.000012145469 electrons
N(Beta)            :       13.000012145469 electrons
N(Total)           :       26.000024290938 electrons
E(X)               :      -16.422774816215 Eh       
E(C)               :       -1.005540433191 Eh       
E(XC)              :      -17.428315249406 Eh       

---------------
SCF CONVERGENCE
---------------

  Last Energy change         ...   -4.1069e-11  Tolerance :   1.0000e-08
  Last MAX-Density change    ...    8.2867e-05  Tolerance :   1.0000e-07
  Last RMS-Density change    ...    4.3482e-06  Tolerance :   5.0000e-09
  Last DIIS Error            ...    1.7833e-03  Tolerance :   5.0000e-07
  Last Orbital Gradient      ...    3.0645e-05  Tolerance :   1.0000e-05
  Last Orbital Rotation      ...    1.7436e-05  Tolerance :   1.0000e-05


----------------
ORBITAL ENERGIES
----------------

  NO   OCC          E(Eh)            E(eV) 
   0   2.0000     -19.152830      -521.1750 
   1   2.0000     -10.231698      -278.4186 
   2   2.0000     -10.177834      -276.9530 
   3   2.0000      -1.027051       -27.9475 
   4   2.0000      -0.743787       -20.2395 
   5   2.0000      -0.617222       -16.7955 
   6   2.0000      -0.510965       -13.9041 
   7   2.0000      -0.456598       -12.4247 
   8   2.0000      -0.423594       -11.5266 
   9   2.0000      -0.384399       -10.4600 
  10   2.0000      -0.372265       -10.1299 
  11   2.0000      -0.325655        -8.8615 
  12   2.0000      -0.274353        -7.4655 
  13   0.0000       0.002774         0.0755 
  14   0.0000       0.029194         0.7944 
  15   0.0000       0.034361         0.9350 
  16   0.0000       0.049269         1.3407 
  17   0.0000       0.075344         2.0502 
  18   0.0000       0.079234         2.1561 
  19   0.0000       0.087034         2.3683 
  20   0.0000       0.133168         3.6237 
  21   0.0000       0.145116         3.9488 
  22   0.0000       0.170964         4.6522 
  23   0.0000       0.187202         5.0940 
*Only the first 10 virtual orbitals were printed.

                    ********************************
                    * MULLIKEN POPULATION ANALYSIS *
                    ********************************

-----------------------
MULLIKEN ATOMIC CHARGES
-----------------------
   0 C :   -0.445851
   1 C :   -0.066954
   2 O :   -0.506520
   3 H :    0.131617
   4 H :    0.160264
   5 H :    0.137853
   6 H :    0.135348
   7 H :    0.115793
   8 H :    0.338451
Sum of atomic charges:    0.0000000

--------------------------------
MULLIKEN REDUCED ORBITAL CHARGES
--------------------------------
  0 C s       :     3.325877  s :     3.325877
      pz      :     1.068309  p :     3.089521
      px      :     0.965915
      py      :     1.055297
      dz2     :     0.009259  d :     0.030452
      dxz     :     0.005256
      dyz     :     0.002661
      dx2y2   :     0.007255
      dxy     :     0.006021

  1 C s       :     3.250453  s :     3.250453
      pz      :     0.955790  p :     2.749332
      px      :     0.791361
      py      :     1.002180
      dz2     :     0.017744  d :     0.067169
      dxz     :     0.012045
      dyz     :     0.006261
      dx2y2   :     0.018097
      dxy     :     0.013023

  2 O s       :     3.824893  s :     3.824893
      pz      :     1.719712  p :     4.658757
      px      :     1.637043
      py      :     1.302002
      dz2     :     0.003068  d :     0.022871
      dxz     :     0.005205
      dyz     :     0.005412
      dx2y2   :     0.006307
      dxy     :     0.002878

  3 H s       :     0.857443  s :     0.857443
      pz      :     0.002268  p :     0.010940
      px      :     0.002442
      py      :     0.006230

  4 H s       :     0.828928  s :     0.828928
      pz      :     0.006510  p :     0.010809
      px      :     0.002078
      py      :     0.002220

  5 H s       :     0.851227  s :     0.851227
      pz      :     0.002969  p :     0.010919
      px      :     0.004526
      py      :     0.003424

  6 H s       :     0.854394  s :     0.854394
      pz      :     0.002024  p :     0.010258
      px      :     0.001711
      py      :     0.006523

  7 H s       :     0.873946  s :     0.873946
      pz      :     0.006601  p :     0.010261
      px      :     0.001806
      py      :     0.001854

  8 H s       :     0.624300  s :     0.624300
      pz      :     0.010326  p :     0.037249
      px      :     0.008515
      py      :     0.018408



                     *******************************
                     * LOEWDIN POPULATION ANALYSIS *
                     *******************************

----------------------
LOEWDIN ATOMIC CHARGES
----------------------
   0 C :   -0.360544
   1 C :   -0.095956
   2 O :   -0.459286
   3 H :    0.128765
   4 H :    0.139292
   5 H :    0.131142
   6 H :    0.137062
   7 H :    0.121257
   8 H :    0.258267

-------------------------------
LOEWDIN REDUCED ORBITAL CHARGES
-------------------------------
  0 C s       :     2.981390  s :     2.981390
      pz      :     1.122706  p :     3.317249
      px      :     1.081188
      py      :     1.113355
      dz2     :     0.017703  d :     0.061904
      dxz     :     0.011408
      dyz     :     0.004842
      dx2y2   :     0.015620
      dxy     :     0.012331

  1 C s       :     2.905550  s :     2.905550
      pz      :     1.039798  p :     3.049113
      px      :     0.966654
      py      :     1.042662
      dz2     :     0.035960  d :     0.141293
      dxz     :     0.027110
      dyz     :     0.012115
      dx2y2   :     0.039490
      dxy     :     0.026617

  2 O s       :     3.558595  s :     3.558595
      pz      :     1.767470  p :     4.853364
      px      :     1.702685
      py      :     1.383209
      dz2     :     0.006033  d :     0.047327
      dxz     :     0.009118
      dyz     :     0.010155
      dx2y2   :     0.014522
      dxy     :     0.007499

  3 H s       :     0.834019  s :     0.834019
      pz      :     0.006578  p :     0.037216
      px      :     0.006797
      py      :     0.023841

  4 H s       :     0.823006  s :     0.823006
      pz      :     0.025364  p :     0.037702
      px      :     0.005881
      py      :     0.006457

  5 H s       :     0.831136  s :     0.831136
      pz      :     0.009840  p :     0.037721
      px      :     0.016278
      py      :     0.011603

  6 H s       :     0.826729  s :     0.826729
      pz      :     0.005891  p :     0.036209
      px      :     0.005366
      py      :     0.024952

  7 H s       :     0.842194  s :     0.842194
      pz      :     0.025379  p :     0.036548
      px      :     0.005100
      py      :     0.006070

  8 H s       :     0.634524  s :     0.634524
      pz      :     0.029253  p :     0.107210
      px      :     0.021700
      py      :     0.056256



                      *****************************
                      * MAYER POPULATION ANALYSIS *
                      *****************************

  NA   - Mulliken gross atomic population
  ZA   - Total nuclear charge
  QA   - Mulliken gross atomic charge
  VA   - Mayer's total valence
  BVA  - Mayer's bonded valence
  FA   - Mayer's free valence

  ATOM       NA         ZA         QA         VA         BVA        FA
  0 C      6.4459     6.0000    -0.4459     3.7724     3.7724    -0.0000
  1 C      6.0670     6.0000    -0.0670     3.7576     3.7576    -0.0000
  2 O      8.5065     8.0000    -0.5065     1.6745     1.6745    -0.0000
  3 H      0.8684     1.0000     0.1316     0.9521     0.9521     0.0000
  4 H      0.8397     1.0000     0.1603     0.9440     0.9440     0.0000
  5 H      0.8621     1.0000     0.1379     0.9500     0.9500     0.0000
  6 H      0.8647     1.0000     0.1353     0.9444     0.9444    -0.0000
  7 H      0.8842     1.0000     0.1158     0.9398     0.9398    -0.0000
  8 H      0.6615     1.0000     0.3385     0.8699     0.8699     0.0000

  Mayer bond orders larger than 0.100000
B(  0-C ,  1-C ) :   0.9344 B(  0-C ,  3-H ) :   0.9707 B(  0-C ,  4-H ) :   0.9668 
B(  0-C ,  5-H ) :   0.9615 B(  1-C ,  2-O ) :   0.8785 B(  1-C ,  6-H ) :   0.9802 
B(  1-C ,  7-H ) :   0.9697 B(  2-O ,  8-H ) :   0.8427 

-------
TIMINGS
-------

Total SCF time: 0 days 0 hours 0 min 4 sec 

Total time                  ....       4.436 sec
Sum of individual times     ....       4.420 sec  ( 99.6%)

SCF preparation             ....       0.024 sec  (  0.5%)
Fock matrix formation       ....       4.372 sec  ( 98.6%)
  Startup                   ....       0.001 sec  (  0.0% of F)
  Split-RI-J                ....       0.198 sec  (  4.5% of F)
  Chain of spheres X        ....       3.143 sec  ( 71.9% of F)
  XC integration            ....       1.020 sec  ( 23.3% of F)
    Basis function eval.    ....       0.433 sec  ( 42.4% of XC)
    Density eval.           ....       0.171 sec  ( 16.7% of XC)
    XC-Functional eval.     ....       0.066 sec  (  6.5% of XC)
    XC-Potential eval.      ....       0.270 sec  ( 26.5% of XC)
Diagonalization             ....       0.000 sec  (  0.0%)
Density matrix formation    ....       0.003 sec  (  0.1%)
Total Energy calculation    ....       0.001 sec  (  0.0%)
Population analysis         ....       0.002 sec  (  0.0%)
Orbital Transformation      ....       0.002 sec  (  0.0%)
Orbital Orthonormalization  ....       0.000 sec  (  0.0%)
DIIS solution               ....       0.009 sec  (  0.2%)
SOSCF solution              ....       0.007 sec  (  0.2%)
Finished LeanSCF after   4.4 sec

Maximum memory used throughout the entire LEANSCF-calculation: 9.4 MB

------------------------------------------------------------------------------
                         ORCA PROPERTY INTEGRAL CALCULATIONS
------------------------------------------------------------------------------

GBWName                                   ... opt.gbw
Number of atoms                           ...      9
Number of basis functions                 ...     84
Max core memory                           ...   1024 MB

Dipole integrals                          ... YES
Quadrupole integrals                      ...  NO
Linear momentum integrals                 ...  NO
Angular momentum integrals                ...  NO
Higher moments length integrals           ...  NO
Higher moments velocity integrals         ...  NO
Kinetic energy integrals                  ...  NO
GIAO right hand sides                     ...  NO
GIAO dipole derivative integrals          ...  NO
SOC integrals                             ...  NO
EPR diamagnetic integrals (GIAO)          ...  NO
EPR gauge integrals                       ...  NO
Field gradient integrals                  ...  NO (   0 nuclei)
Spin-dipole/Fermi contact integrals       ...  NO (   0 nuclei)
Contact density integrals                 ...  NO (   0 nuclei)
Nucleus-orbit integrals                   ...  NO (   0 nuclei)
Geometric perturbations                   ...  NO (   9 nuclei)

Choice of electric origin   ... Center of mass
Position of electric origin ... (  0.7285, -0.0707, -0.2004) 
Choice of magnetic origin   ... GIAO
Position of magnetic origin ... (  0.0000,  0.0000,  0.0000) 

Calculating integrals                     ... Electric Dipole (Length)     done (  0.0 sec)

Property integrals calculated in   0.0 sec

Maximum memory used throughout the entire PROPINT-calculation: 7.0 MB


-------------------------------------------------------------------------------
                          DFT DISPERSION CORRECTION                            
                                                                               
                                DFTD4 V3.4.0                                   
-------------------------------------------------------------------------------
The B3LYP functional is recognized
Active option DFTDOPT                   ...         5   

-------------------------   ----------------
Dispersion correction           -0.005898104
-------------------------   ----------------


-------------------------   --------------------
FINAL SINGLE POINT ENERGY      -154.963037266393
-------------------------   --------------------

------------------------------------------------------------------------------
                         ORCA SCF GRADIENT CALCULATION
------------------------------------------------------------------------------

Nuc. rep. gradient        (SHARK) ... done (  0.0 sec)
HCore & Overlap gradient  (SHARK) ... done (  0.0 sec)
Split-RIJ-J gradient      (SHARK) ... done (  0.1 sec)
COSX-gradient                     ... done (  3.1 sec)
XC gradient                       ... done (  0.7 sec)
Dispersion correction             ... done (  0.0 sec)

-------------------
DISPERSION GRADIENT
-------------------

   1   C   :   -0.000198327    0.000005785   -0.000024778
   2   C   :   -0.000005250    0.000065852    0.000084549
   3   O   :    0.000251368   -0.000091148    0.000005234
   4   H   :   -0.000060104   -0.000010543   -0.000013533
   5   H   :   -0.000050591    0.000003031   -0.000024847
   6   H   :   -0.000075305    0.000009892   -0.000005547
   7   H   :    0.000038282    0.000000007   -0.000002745
   8   H   :    0.000039281    0.000006095    0.000001436
   9   H   :    0.000060648    0.000011028   -0.000019770

Difference to translation invariance:
           :   -0.0000000000    0.0000000000   -0.0000000000

Difference to rotation invariance:
           :    0.0000000000    0.0000000000   -0.0000000000

Norm of the Dispersion gradient    ...    0.0003783556
RMS gradient                       ...    0.0000728146
MAX gradient                       ...    0.0002513677

------------------
CARTESIAN GRADIENT
------------------

   1   C   :    0.009408194   -0.001944594    0.000004134
   2   C   :    0.014962617   -0.011209131   -0.009627462
   3   O   :   -0.016043075    0.028578510   -0.006243436
   4   H   :    0.000738320   -0.008544616    0.002686033
   5   H   :    0.000701243    0.003066513   -0.009847925
   6   H   :   -0.003429405    0.006161484    0.004848193
   7   H   :   -0.003207058    0.009872491   -0.001217477
   8   H   :    0.000075180   -0.004410958    0.006538137
   9   H   :   -0.003206017   -0.021569697    0.012859803

Difference to translation invariance:
           :    0.0000000000    0.0000000000   -0.0000000000

Difference to rotation invariance:
           :    0.0000221976   -0.0000661703   -0.0000676739

Norm of the Cartesian gradient     ...    0.0521615271
RMS gradient                       ...    0.0100384906
MAX gradient                       ...    0.0285785096

-------
TIMINGS
-------

Total SCF gradient time     ....        3.880 sec

Densities                   ....       0.000 sec  (  0.0%)
One electron gradient       ....       0.013 sec  (  0.3%)
RI-J Coulomb gradient       ....       0.105 sec  (  2.7%)
COSX gradient               ....       3.083 sec  ( 79.5%)
XC gradient                 ....       0.658 sec  ( 17.0%)

Maximum memory used throughout the entire SCFGRAD-calculation: 26.8 MB
------------------------------------------------------------------------------
                         ORCA GEOMETRY RELAXATION STEP
------------------------------------------------------------------------------

Reading the OPT-File                    .... done
Getting information on internals        .... done
Copying old internal coords+grads       .... done
Making the new internal coordinates     .... (2022 redundants) done
Validating the new internal coordinates .... (2022 redundants) done
Calculating the B-matrix                .... done
Calculating the G,G- and P matrices     .... done
Transforming gradient to internals      .... done
Projecting the internal gradient        .... done
Number of atoms                         ....   9
Number of internal coordinates          ....  30
Current Energy                          ....  -154.963037266 Eh
Current gradient norm                   ....     0.052161527 Eh/bohr
Maximum allowed component of the step   ....  0.300
Current trust radius                    ....  0.300
Evaluating the initial hessian          ....  (Almloef) done
Projecting the Hessian                  .... done
Forming the augmented Hessian           .... done
Diagonalizing the augmented Hessian     .... done
Last element of RFO vector              ....  0.992994686
Lowest eigenvalues of augmented Hessian:
 -0.004583260  0.011638542  0.022932055  0.109098247  0.133412380
Length of the computed step             ....  0.118992602
The final length of the internal step   ....  0.118992602
Converting the step to Cartesian space:
 Initial RMS(Int)=    0.0217249773
Transforming coordinates:
 Iter   0:  RMS(Cart)=    0.0333296753 RMS(Int)=    0.0218531303
done
Storing new coordinates                 .... done

                                .--------------------.
          ----------------------|Geometry convergence|-------------------------
          Item                value                   Tolerance       Converged
          ---------------------------------------------------------------------
          RMS gradient        0.0078044527            0.0001000000      NO
          MAX gradient        0.0249252711            0.0003000000      NO
          RMS step            0.0217249773            0.0020000000      NO
          MAX step            0.0535654034            0.0040000000      NO
          ........................................................
          Max(Bonds)      0.0283      Max(Angles)    1.99
          Max(Dihed)        2.62      Max(Improp)    0.00
          ---------------------------------------------------------------------

The optimization has not yet converged - more geometry cycles are needed


    ---------------------------------------------------------------------------
                         Redundant Internal Coordinates
                            (Angstroem and degrees)

        Definition                    Value    dE/dq     Step     New-Value
    ----------------------------------------------------------------------------
     1. B(C   1,C   0)                1.5238 -0.005465  0.0075    1.5312   
     2. B(O   2,C   1)                1.4015 -0.020555  0.0201    1.4216   
     3. B(H   3,C   0)                1.1106  0.008574 -0.0134    1.0972   
     4. B(H   4,C   0)                1.1106  0.010221 -0.0160    1.0947   
     5. B(H   5,C   0)                1.1104  0.007952 -0.0124    1.0980   
     6. B(H   6,C   1)                1.1104  0.009288 -0.0145    1.0959   
     7. B(H   7,C   1)                1.1137  0.007187 -0.0114    1.1023   
     8. B(H   8,O   2)                0.9929  0.024925 -0.0283    0.9646   
     9. A(C   1,C   0,H   5)          109.69 -0.004008    0.79    110.49   
    10. A(H   3,C   0,H   4)          109.21  0.002464   -0.60    108.61   
    11. A(H   3,C   0,H   5)          108.86  0.003165   -0.55    108.32   
    12. A(C   1,C   0,H   4)          110.01 -0.000471    0.08    110.10   
    13. A(C   1,C   0,H   3)          110.10 -0.002814    0.48    110.58   
    14. A(H   4,C   0,H   5)          108.94  0.001777   -0.24    108.70   
    15. A(H   6,C   1,H   7)          108.05  0.003166   -0.94    107.11   
    16. A(C   0,C   1,O   2)          110.36 -0.012113    1.99    112.35   
    17. A(O   2,C   1,H   7)          110.56 -0.001015    0.31    110.88   
    18. A(C   0,C   1,H   7)          109.97  0.003214   -0.03    109.94   
    19. A(O   2,C   1,H   6)          108.76  0.007719   -1.69    107.07   
    20. A(C   0,C   1,H   6)          109.08 -0.000574    0.28    109.36   
    21. A(C   1,O   2,H   8)          106.61 -0.007977    1.28    107.89   
    22. D(O   2,C   1,C   0,H   4)    -58.56 -0.001471    0.78    -57.78   
    23. D(H   6,C   1,C   0,H   3)   -178.73  0.001263   -0.30   -179.02   
    24. D(O   2,C   1,C   0,H   3)     61.84 -0.000506    0.40     62.24   
    25. D(H   6,C   1,C   0,H   4)     60.87  0.000297    0.09     60.95   
    26. D(H   6,C   1,C   0,H   5)    -58.95  0.000905   -0.17    -59.12   
    27. D(O   2,C   1,C   0,H   5)   -178.38 -0.000864    0.53   -177.86   
    28. D(H   8,O   2,C   1,C   0)    -76.70 -0.000174    1.12    -75.58   
    29. D(H   8,O   2,C   1,H   7)     45.19 -0.004949    2.62     47.81   
    30. D(H   8,O   2,C   1,H   6)    163.68  0.003033    0.62    164.31   
    ----------------------------------------------------------------------------

Geometry step timings:
Preparation and reading OPT file:      0.000 s (20.191 %)
Internal coordinates            :      0.000 s (23.529 %)
B/P matrices and projection     :      0.000 s ( 9.327 %)
Hessian update/contruction      :      0.000 s (21.251 %)
Making the step                 :      0.000 s ( 6.306 %)
Converting the step to Cartesian:      0.000 s ( 0.742 %)
Storing new data                :      0.000 s ( 2.650 %)
Checking convergence            :      0.000 s ( 0.053 %)
Final printing                  :      0.000 s (15.315 %)
Total time                      :      0.002 s

Time for energy+gradient        :      9.004 s
Time for complete geometry iter :      9.063 s

         *************************************************************
         *                GEOMETRY OPTIMIZATION CYCLE   2            *
         *************************************************************
---------------------------------
CARTESIAN COORDINATES (ANGSTROEM)
---------------------------------
  C     -0.903891   -0.007499   -0.270899
  C      0.471343    0.349143    0.300278
  O      1.521417   -0.375265   -0.327035
  H     -1.130537   -1.066946   -0.097524
  H     -0.924184    0.182198   -1.348810
  H     -1.686813    0.595593    0.207475
  H      0.669784    1.413737    0.131979
  H      0.478892    0.186378    1.390471
  H      1.503990   -1.277339    0.014064

----------------------------
CARTESIAN COORDINATES (A.U.)
----------------------------
  NO LB      ZA    FRAG     MASS         X           Y           Z
   0 C     6.0000    0    12.011   -1.708106   -0.014172   -0.511924
   1 C     6.0000    0    12.011    0.890709    0.659785    0.567442
   2 O     8.0000    0    15.999    2.875062   -0.709148   -0.618007
   3 H     1.0000    0     1.008   -2.136406   -2.016236   -0.184293
   4 H     1.0000    0     1.008   -1.746455    0.344303   -2.548881
   5 H     1.0000    0     1.008   -3.187615    1.125508    0.392071
   6 H     1.0000    0     1.008    1.265708    2.671575    0.249404
   7 H     1.0000    0     1.008    0.904974    0.352203    2.627610
   8 H     1.0000    0     1.008    2.842130   -2.413821    0.026577

--------------------------------
INTERNAL COORDINATES (ANGSTROEM)
--------------------------------
 C      0   0   0     0.000000000000     0.00000000     0.00000000
 C      1   0   0     1.531242515973     0.00000000     0.00000000
 O      2   1   0     1.421598982916   112.34072980     0.00000000
 H      1   2   3     1.097203217248   110.57758699    62.23952877
 H      1   2   3     1.094664177973   110.09601761   302.21982485
 H      1   2   3     1.097966227869   110.48510883   182.14482342
 H      2   1   3     1.095929983888   109.36535485   118.73613706
 H      2   1   3     1.102302751068   109.91807304   236.05251373
 H      3   2   1     0.964567076887   107.88853539   284.39955007

---------------------------
INTERNAL COORDINATES (A.U.)
---------------------------
 C      0   0   0     0.000000000000     0.00000000     0.00000000
 C      1   0   0     2.893628999805     0.00000000     0.00000000
 O      2   1   0     2.686432749972   112.34072980     0.00000000
 H      1   2   3     2.073413593855   110.57758699    62.23952877
 H      1   2   3     2.068615504982   110.09601761   302.21982485
 H      1   2   3     2.074855474967   110.48510883   182.14482342
 H      2   1   3     2.071007531501   109.36535485   118.73613706
 H      2   1   3     2.083050316187   109.91807304   236.05251373
 H      3   2   1     1.822767613113   107.88853539   284.39955007

------------------------------------------------------------------------------
                   ___                                                        
                  /   \      - P O W E R E D   B Y -                         
                 /     \                                                     
                 |  |  |   _    _      __       _____    __    __             
                 |  |  |  | |  | |    /  \     |  _  \  |  |  /  |          
                  \  \/   | |  | |   /    \    | | | |  |  | /  /          
                 / \  \   | |__| |  /  /\  \   | |_| |  |  |/  /          
                |  |  |   |  __  | /  /__\  \  |    /   |      \           
                |  |  |   | |  | | |   __   |  |    \   |  |\   \          
                \     /   | |  | | |  |  |  |  | |\  \  |  | \   \       
                 \___/    |_|  |_| |__|  |__|  |_| \__\ |__|  \__/        
                                                                              
                      - O R C A' S   B I G   F R I E N D -                    
                                      &                                       
                       - I N T E G R A L  F E E D E R -                       
                                                                              
 v1 FN, 2020, v2 2021, v3 2022-2024                                           
------------------------------------------------------------------------------


----------------------
SHARK INTEGRAL PACKAGE
----------------------

Number of atoms                             ...      9
Number of basis functions                   ...     84
Number of shells                            ...     42
Maximum angular momentum                    ...      2
Integral batch strategy                     ... SHARK/LIBINT Hybrid
RI-J (if used) integral strategy            ... SPLIT-RIJ (Revised 2003 algorithm where possible)
Printlevel                                  ...      1
Contraction scheme used                     ... SEGMENTED contraction
Prescreening option                         ... SCHWARTZ
   Thresh                                   ... 2.500e-11
   Tcut                                     ... 2.500e-12
   Tpresel                                  ... 2.500e-12 
Coulomb Range Separation                    ... NOT USED
Exchange Range Separation                   ... NOT USED
Multipole approximations                    ... NOT USED
Finite Nucleus Model                        ... NOT USED
CABS basis                                  ... NOT available
Auxiliary Coulomb fitting basis             ... AVAILABLE
   # of basis functions in Aux-J            ...    213
   # of shells in Aux-J                     ...     75
   Maximum angular momentum in Aux-J        ...      4
Auxiliary J/K fitting basis                 ... NOT available
Auxiliary Correlation fitting basis         ... NOT available
Auxiliary 'external' fitting basis          ... NOT available

Checking pre-screening integrals            ... done (  0.0 sec) Dimension = 42
Check shell pair data                       ... done (  0.0 sec)
Shell pair information
Shell pair cut-off parameter TPreSel        ...   2.5e-12
Total number of shell pairs                 ...       903
Shell pairs after pre-screening             ...       901
Total number of primitive shell pairs       ...      3402
Primitive shell pairs kept                  ...      2877
          la=0 lb=0:    299 shell pairs
          la=1 lb=0:    359 shell pairs
          la=1 lb=1:    120 shell pairs
          la=2 lb=0:     72 shell pairs
          la=2 lb=1:     45 shell pairs
          la=2 lb=2:      6 shell pairs

Calculating one electron integrals          ... done (  0.0 sec)
Calculating RI/J V-Matrix + Cholesky decomp.... done (  0.0 sec)
Calculating Nuclear repulsion               ... done (  0.0 sec) ENN=     81.396701488428 Eh

Diagonalization of the overlap matrix:
Smallest eigenvalue                        ... 2.860e-04
Time for diagonalization                   ...    0.001 sec
Threshold for overlap eigenvalues          ... 1.000e-07
Number of eigenvalues below threshold      ... 0
Time for construction of square roots      ...    0.000 sec
Total time needed                          ...    0.001 sec

-------------------
DFT GRID GENERATION
-------------------

General Integration Accuracy     IntAcc      ... 4.388
Radial Grid Type                 RadialGrid  ... OptM3 with GC (2021)
Angular Grid (max. ang.)         AngularGrid ... 4 (Lebedev-302)
Angular grid pruning method      GridPruning ... 4 (adaptive)
Weight generation scheme         WeightScheme... mBecke (2022)
Basis function cutoff            BFCut       ... 1.0000e-11
Integration weight cutoff        WCut        ... 1.0000e-14
Partially contracted basis set               ... off
Rotationally invariant grid construction     ... off
Angular grids for H and He will be reduced by one unit
Diffuse basis detected: some atoms will have their outermost
                        angular grid increased by 1.

Total number of grid points                  ...    38612
Total number of batches                      ...      608
Average number of points per batch           ...       63
Average number of grid points per atom       ...     4290

--------------------
COSX GRID GENERATION
--------------------

GRIDX 1
-------
General Integration Accuracy     IntAcc      ... 3.816
Radial Grid Type                 RadialGrid  ... OptM3 with GC (2021)
Angular Grid (max. ang.)         AngularGrid ... 1 (Lebedev-50)
Angular grid pruning method      GridPruning ... 4 (adaptive)
Weight generation scheme         WeightScheme... mBecke (2022)
Basis function cutoff            BFCut       ... 1.0000e-11
Integration weight cutoff        WCut        ... 1.0000e-14
Partially contracted basis set               ... on
Rotationally invariant grid construction     ... off
Angular grids for H and He will be reduced by one unit
Diffuse basis detected: some atoms will have their outermost
                        angular grid increased by 1.

Total number of grid points                  ...     5010
Total number of batches                      ...       44
Average number of points per batch           ...      113
Average number of grid points per atom       ...      557
UseSFitting                                  ... on

GRIDX 2
-------
General Integration Accuracy     IntAcc      ... 4.020
Radial Grid Type                 RadialGrid  ... OptM3 with GC (2021)
Angular Grid (max. ang.)         AngularGrid ... 2 (Lebedev-110)
Angular grid pruning method      GridPruning ... 4 (adaptive)
Weight generation scheme         WeightScheme... mBecke (2022)
Basis function cutoff            BFCut       ... 1.0000e-11
Integration weight cutoff        WCut        ... 1.0000e-14
Partially contracted basis set               ... on
Rotationally invariant grid construction     ... off
Angular grids for H and He will be reduced by one unit
Diffuse basis detected: some atoms will have their outermost
                        angular grid increased by 1.

Total number of grid points                  ...    11330
Total number of batches                      ...       93
Average number of points per batch           ...      121
Average number of grid points per atom       ...     1259
UseSFitting                                  ... on

GRIDX 3
-------
General Integration Accuracy     IntAcc      ... 4.338
Radial Grid Type                 RadialGrid  ... OptM3 with GC (2021)
Angular Grid (max. ang.)         AngularGrid ... 3 (Lebedev-194)
Angular grid pruning method      GridPruning ... 4 (adaptive)
Weight generation scheme         WeightScheme... mBecke (2022)
Basis function cutoff            BFCut       ... 1.0000e-11
Integration weight cutoff        WCut        ... 1.0000e-14
Partially contracted basis set               ... on
Rotationally invariant grid construction     ... off
Angular grids for H and He will be reduced by one unit
Diffuse basis detected: some atoms will have their outermost
                        angular grid increased by 1.

Total number of grid points                  ...    24484
Total number of batches                      ...      196
Average number of points per batch           ...      124
Average number of grid points per atom       ...     2720
UseSFitting                                  ... on
Initializing property integral containers    ... done (  0.0 sec)

SHARK setup successfully completed in   0.2 seconds

Maximum memory used throughout the entire STARTUP-calculation: 16.5 MB
Occupation numbers will be reassigned to an Aufbau configuration
             **** ENERGY FILE WAS UPDATED (opt.en.tmp) ****
Finished Guess after   0.0 sec
Maximum memory used throughout the entire GUESS-calculation: 6.9 MB
----------------------------------------D-I-I-S--------------------------------------------
Iteration    Energy (Eh)           Delta-E    RMSDP     MaxDP     DIISErr   Damp  Time(sec)
-------------------------------------------------------------------------------------------
               ***  Starting incremental Fock matrix formation  ***
    1    -154.9587794044346651     0.00e+00  2.57e-04  2.94e-03  1.13e-02  0.700   0.5
    2    -154.9590554586591225    -2.76e-04  2.28e-04  3.01e-03  8.35e-03  0.700   0.3
                               ***Turning on AO-DIIS***
    3    -154.9592570734003516    -2.02e-04  1.78e-04  2.55e-03  5.88e-03  0.700   0.3
    4    -154.9593990571772792    -1.42e-04  4.39e-04  5.89e-03  4.16e-03  0.000   0.4
                              *** Initializing SOSCF ***
---------------------------------------S-O-S-C-F--------------------------------------
Iteration    Energy (Eh)           Delta-E    RMSDP     MaxDP     MaxGrad    Time(sec)
--------------------------------------------------------------------------------------
    5    -154.9597452154784492    -3.46e-04  3.37e-05  4.68e-04  4.44e-04     0.3
               *** Restarting incremental Fock matrix formation ***
    6    -154.9597456134391109    -3.98e-07  2.94e-05  5.28e-04  6.28e-05     0.5
    7    -154.9597456732869887    -5.98e-08  8.81e-06  1.58e-04  6.60e-05     0.4
    8    -154.9597457853211040    -1.12e-07  1.79e-06  2.63e-05  5.38e-06     0.4
    9    -154.9597457842960466     1.03e-09  8.13e-07  1.30e-05  6.61e-06     0.3
                 **** Energy Check signals convergence ****

               *****************************************************
               *                     SUCCESS                       *
               *           SCF CONVERGED AFTER   9 CYCLES          *
               *****************************************************

Recomputing exchange energy using gridx3       ... done (    0.740 sec)
Old exchange energy                            :     -4.141162418 Eh
New exchange energy                            :     -4.141174383 Eh
Exchange energy change after final integration :     -0.000011965 Eh
Total energy after final integration           :   -154.959757749 Eh
             **** ENERGY FILE WAS UPDATED (opt.en.tmp) ****

----------------
TOTAL SCF ENERGY
----------------

Total Energy       :       -154.95975774890428 Eh           -4216.66938 eV

Components:
Nuclear Repulsion  :         81.39670148842841 Eh            2214.91685 eV
Electronic Energy  :       -236.35644727272444 Eh           -6431.58591 eV
One Electron Energy:       -370.79300492817703 Eh          -10089.79062 eV
Two Electron Energy:        134.43655765545259 Eh            3658.20471 eV

Virial components:
Potential Energy   :       -308.89130750435487 Eh           -8405.35980 eV
Kinetic Energy     :        153.93154975545059 Eh            4188.69042 eV
Virial Ratio       :          2.00667964426453

DFT components:
N(Alpha)           :       13.000010381131 electrons
N(Beta)            :       13.000010381131 electrons
N(Total)           :       26.000020762261 electrons
E(X)               :      -16.440133984515 Eh       
E(C)               :       -1.006130298434 Eh       
E(XC)              :      -17.446264282949 Eh       

---------------
SCF CONVERGENCE
---------------

  Last Energy change         ...   -1.0251e-09  Tolerance :   1.0000e-08
  Last MAX-Density change    ...    1.3031e-05  Tolerance :   1.0000e-07
  Last RMS-Density change    ...    8.1304e-07  Tolerance :   5.0000e-09
  Last DIIS Error            ...    4.4360e-04  Tolerance :   5.0000e-07
  Last Orbital Gradient      ...    6.6145e-06  Tolerance :   1.0000e-05
  Last Orbital Rotation      ...    3.2524e-06  Tolerance :   1.0000e-05


Total SCF time: 0 days 0 hours 0 min 4 sec 
Finished LeanSCF after   4.2 sec

Maximum memory used throughout the entire LEANSCF-calculation: 9.5 MB

------------------------------------------------------------------------------
                         ORCA PROPERTY INTEGRAL CALCULATIONS
------------------------------------------------------------------------------

GBWName                                   ... opt.gbw
Number of atoms                           ...      9
Number of basis functions                 ...     84
Max core memory                           ...   1024 MB

Dipole integrals                          ... YES
Quadrupole integrals                      ...  NO
Linear momentum integrals                 ...  NO
Angular momentum integrals                ...  NO
Higher moments length integrals           ...  NO
Higher moments velocity integrals         ...  NO
Kinetic energy integrals                  ...  NO
GIAO right hand sides                     ...  NO
GIAO dipole derivative integrals          ...  NO
SOC integrals                             ...  NO
EPR diamagnetic integrals (GIAO)          ...  NO
EPR gauge integrals                       ...  NO
Field gradient integrals                  ...  NO (   0 nuclei)
Spin-dipole/Fermi contact integrals       ...  NO (   0 nuclei)
Contact density integrals                 ...  NO (   0 nuclei)
Nucleus-orbit integrals                   ...  NO (   0 nuclei)
Geometric perturbations                   ...  NO (   9 nuclei)

Choice of electric origin   ... Center of mass
Position of electric origin ... (  0.7403, -0.0766, -0.1878) 
Choice of magnetic origin   ... GIAO
Position of magnetic origin ... (  0.0000,  0.0000,  0.0000) 

Calculating integrals                     ... Electric Dipole (Length)     done (  0.0 sec)

Property integrals calculated in   0.0 sec

Maximum memory used throughout the entire PROPINT-calculation: 7.0 MB


-------------------------------------------------------------------------------
                          DFT DISPERSION CORRECTION                            
                                                                               
                                DFTD4 V3.4.0                                   
-------------------------------------------------------------------------------
-------------------------   ----------------
Dispersion correction           -0.005863038
-------------------------   ----------------


-------------------------   --------------------
FINAL SINGLE POINT ENERGY      -154.965620786448
-------------------------   --------------------

------------------------------------------------------------------------------
                         ORCA SCF GRADIENT CALCULATION
------------------------------------------------------------------------------

Nuc. rep. gradient        (SHARK) ... done (  0.0 sec)
HCore & Overlap gradient  (SHARK) ... done (  0.0 sec)
Split-RIJ-J gradient      (SHARK) ... done (  0.1 sec)
COSX-gradient                     ... done (  3.1 sec)
XC gradient                       ... done (  0.6 sec)
Dispersion correction             ... done (  0.0 sec)

-------------------
DISPERSION GRADIENT
-------------------

   1   C   :   -0.000204834    0.000008580   -0.000024770
   2   C   :   -0.000005209    0.000062173    0.000079937
   3   O   :    0.000263846   -0.000082704    0.000004453
   4   H   :   -0.000064622   -0.000013344   -0.000012428
   5   H   :   -0.000053055    0.000003951   -0.000027278
   6   H   :   -0.000075442    0.000010379   -0.000005071
   7   H   :    0.000039650    0.000001129   -0.000004105
   8   H   :    0.000038974    0.000004242    0.000005490
   9   H   :    0.000060691    0.000005594   -0.000016228

Difference to translation invariance:
           :   -0.0000000000    0.0000000000    0.0000000000

Difference to rotation invariance:
           :    0.0000000000    0.0000000000    0.0000000000

Norm of the Dispersion gradient    ...    0.0003878722
RMS gradient                       ...    0.0000746460
MAX gradient                       ...    0.0002638461

------------------
CARTESIAN GRADIENT
------------------

   1   C   :   -0.002112682   -0.000413197   -0.001751475
   2   C   :    0.008539513   -0.003048649   -0.002169302
   3   O   :   -0.003498592   -0.000292037   -0.000305852
   4   H   :    0.001171236   -0.000327774    0.000595603
   5   H   :    0.000515570    0.000630053    0.000078127
   6   H   :   -0.000179304    0.000852919    0.000405761
   7   H   :   -0.002772647    0.001351616    0.000826191
   8   H   :   -0.000848153   -0.000357874    0.000797331
   9   H   :   -0.000814942    0.001604944    0.001523615

Difference to translation invariance:
           :    0.0000000000    0.0000000000   -0.0000000000

Difference to rotation invariance:
           :    0.0000131219   -0.0000281257   -0.0000403218

Norm of the Cartesian gradient     ...    0.0113010137
RMS gradient                       ...    0.0021748811
MAX gradient                       ...    0.0085395129

-------
TIMINGS
-------

Total SCF gradient time     ....        3.884 sec

Densities                   ....       0.000 sec  (  0.0%)
One electron gradient       ....       0.013 sec  (  0.3%)
RI-J Coulomb gradient       ....       0.098 sec  (  2.5%)
COSX gradient               ....       3.110 sec  ( 80.1%)
XC gradient                 ....       0.645 sec  ( 16.6%)

Maximum memory used throughout the entire SCFGRAD-calculation: 26.8 MB
[...]
      3      -0.254366   0.039587   0.002958   0.050122  -0.070729  -0.112478
      4       0.120680  -0.057158  -0.107524  -0.073090  -0.021627  -0.018811
      5      -0.002877  -0.192387   0.048672   0.012599   0.005847  -0.006576
      6       0.162322  -0.026837   0.024426   0.029863   0.018868   0.014647
      7      -0.102919   0.039668   0.018126   0.038273   0.028356   0.025861
      8      -0.085601   0.065056  -0.009209  -0.043845  -0.006109   0.000579
      9      -0.089885   0.117554   0.264386  -0.063093   0.291084  -0.372250
     10       0.018506  -0.060698   0.080600  -0.009803  -0.055853   0.088685
     11      -0.031085  -0.208790   0.202873  -0.115148   0.214929  -0.057847
     12       0.236971   0.500831  -0.187151   0.070972   0.421726  -0.382269
     13       0.190344   0.049012  -0.225819  -0.076326   0.110450   0.008221
     14       0.107420   0.117382  -0.103470   0.027637  -0.019538   0.023426
     15       0.218420  -0.278456  -0.098898  -0.117360   0.295556  -0.210049
     16       0.155477  -0.032194  -0.171957  -0.071254   0.170880  -0.213293
     17       0.052998  -0.276063   0.102654  -0.050226   0.327174  -0.232990
     18      -0.536188  -0.112030  -0.531996   0.208404   0.513825   0.553390
     19       0.204624   0.039430  -0.045330  -0.143870  -0.149905  -0.163247
     20       0.201555   0.167054  -0.199883  -0.150607  -0.039413  -0.029863
     21      -0.215151   0.259718   0.391552  -0.728155   0.250181   0.391970
     22      -0.185804  -0.426101   0.062728   0.217145   0.033181  -0.012050
     23      -0.060811  -0.240196   0.066216   0.062837   0.016765  -0.010169
     24      -0.399654  -0.261707  -0.392648  -0.429607  -0.239957  -0.171118
     25       0.013579   0.088989   0.106942   0.138790   0.080993   0.064585
     26       0.239653   0.158923   0.234013   0.251419   0.136168   0.110178
                 18         19         20         21         22         23    
      0      -0.013233   0.007090   0.003369   0.005423  -0.044346  -0.020834
      1      -0.030548  -0.038662  -0.015274   0.001645  -0.024148   0.066297
      2       0.034896  -0.027689  -0.011849  -0.006621  -0.009315  -0.012306
      3      -0.008789   0.028142   0.001015   0.005971   0.002750  -0.010761
      4      -0.020523   0.008419  -0.060578   0.003269   0.003099  -0.050254
      5       0.018258   0.016529  -0.055272   0.075103   0.005168   0.019131
      6       0.004719  -0.002686   0.003416  -0.001682  -0.000369   0.000814
      7       0.005450   0.004951  -0.005130   0.001193   0.000082   0.000346
      8      -0.004792   0.001523  -0.005102   0.000560   0.000161  -0.000560
      9       0.491305  -0.011153   0.003564  -0.013094   0.136063  -0.112215
     10      -0.163860   0.089640   0.043660  -0.070555   0.667295  -0.500026
     11      -0.173860   0.566797   0.272146   0.011181  -0.129536   0.097526
     12      -0.410643   0.003917   0.012131  -0.000131  -0.007299  -0.005522
     13       0.155618   0.614452   0.287281  -0.005543  -0.075233  -0.023988
     14       0.050396   0.076688   0.036309   0.032964   0.456550   0.263421
     15       0.123386  -0.171345  -0.093903  -0.053064   0.388943   0.364278
     16       0.510394  -0.107066  -0.065582   0.048298  -0.307911  -0.268832
     17      -0.463603  -0.214137  -0.110285   0.034526  -0.222137  -0.212516
     18       0.017603  -0.057798  -0.062879  -0.035444  -0.011360   0.122926
     19      -0.037759  -0.043489   0.091338  -0.197662  -0.049059   0.599353
     20      -0.033237  -0.308715   0.624954   0.054660   0.009135  -0.114169
     21       0.032950  -0.123033   0.039622  -0.004878  -0.003161  -0.004352
     22       0.038317  -0.281709   0.632159   0.145296   0.010131   0.007509
     23       0.028614  -0.032904   0.058886  -0.957621  -0.066384  -0.110352
     24      -0.067100  -0.017777  -0.005005  -0.002461  -0.001678  -0.001558
     25       0.019336   0.009952  -0.003598   0.002683   0.004302  -0.010688
     26       0.034387   0.021079  -0.001241  -0.000597  -0.000766   0.003651
                 24         25         26    
      0       0.027045  -0.025009  -0.000095
      1      -0.053149  -0.015954  -0.000589
      2      -0.024022   0.082826  -0.000081
      3      -0.011545  -0.005126   0.001817
      4      -0.058730  -0.024197   0.001918
      5       0.019417   0.016359  -0.001221
      6       0.000604   0.000388   0.006443
      7       0.001122   0.000236   0.061478
      8      -0.000293  -0.000601  -0.009173
      9       0.087550   0.053358  -0.001329
     10       0.366150   0.270406   0.002776
     11      -0.076400  -0.035150  -0.001325
     12       0.004171  -0.004516  -0.000248
     13      -0.033718   0.122287   0.000288
     14       0.141025  -0.824519   0.000158
     15      -0.413985   0.253613   0.002415
     16       0.307959  -0.202576  -0.000698
     17       0.229602  -0.131399  -0.000151
     18       0.141657   0.058479  -0.004338
     19       0.674827   0.269825  -0.013786
     20      -0.128426  -0.051818   0.004979
     21      -0.005231  -0.004932   0.002428
     22       0.009831   0.017340  -0.002333
     23      -0.110003  -0.132249   0.000037
     24      -0.008441  -0.003085  -0.121709
     25      -0.009747  -0.002605  -0.977871
     26       0.003717   0.002819   0.157410


-----------
IR SPECTRUM
-----------

 Mode   freq       eps      Int      T**2         TX        TY        TZ
       cm**-1   L/(mol*cm) km/mol    a.u.
----------------------------------------------------------------------------
  6:    263.94   0.000677    3.42  0.000800  (-0.006537 -0.011316 -0.025093)
  7:    291.29   0.027030  136.60  0.028957  ( 0.101984 -0.010096  0.135847)
  8:    421.14   0.002796   14.13  0.002072  ( 0.024626  0.012697  0.036115)
  9:    805.32   0.000550    2.78  0.000213  (-0.005551  0.001286  0.013446)
 10:    885.14   0.002475   12.51  0.000873  ( 0.022575 -0.014211 -0.012687)
 11:   1056.92   0.001886    9.53  0.000557  ( 0.006832 -0.016908 -0.014981)
 12:   1072.89   0.025292  127.81  0.007356  (-0.073228  0.037498  0.024248)
 13:   1133.27   0.001178    5.95  0.000324  ( 0.006271 -0.006460 -0.015598)
 14:   1272.93   0.002151   10.87  0.000527  (-0.019451  0.006641  0.010237)
 15:   1363.69   0.000359    1.81  0.000082  (-0.006017  0.000399  0.006768)
 16:   1402.52   0.002257   11.40  0.000502  (-0.015125  0.011332  0.012038)
 17:   1422.67   0.007813   39.48  0.001714  (-0.040571  0.007188  0.004010)
 18:   1491.57   0.001602    8.10  0.000335  (-0.001919  0.014270 -0.011308)
 19:   1496.82   0.000585    2.96  0.000122  (-0.005210  0.008411  0.004906)
 20:   1518.76   0.000170    0.86  0.000035  ( 0.002520  0.004418  0.002998)
 21:   2999.16   0.013906   70.28  0.001447  (-0.000113  0.010623  0.036525)
 22:   3028.53   0.003809   19.25  0.000392  (-0.017730 -0.008804 -0.000782)
 23:   3083.40   0.000985    4.98  0.000100  (-0.009277  0.003573  0.000938)
 24:   3102.58   0.010484   52.98  0.001054  ( 0.004488 -0.032091 -0.002122)
 25:   3117.30   0.007471   37.76  0.000748  (-0.006516 -0.010957  0.024196)
 26:   3818.25   0.003961   20.02  0.000324  ( 0.005021 -0.017279 -0.000004)

* The epsilon (eps) is given for a Dirac delta lineshape.
** The dipole moment derivative (T) already includes vibrational overlap.

The first frequency considered to be a vibration is 6
The total number of vibrations considered is 21


--------------------------
THERMOCHEMISTRY AT 298.15K
--------------------------

Temperature         ...   298.15 K
Pressure            ...     1.00 atm
Total Mass          ...    46.07 AMU
Quasi RRHO          ...     True
Cut-Off Frequency   ...     1.00 cm^-1

Throughout the following assumptions are being made:
  (1) The electronic state is orbitally nondegenerate
  (2) There are no thermally accessible electronically excited states
  (3) Hindered rotations indicated by low frequency modes are not
      treated as such but are treated as vibrations and this may
      cause some error
  (4) All equations used are the standard statistical mechanics
      equations for an ideal gas
  (5) All vibrations are strictly harmonic

freq.     263.94  E(vib)   ...       0.29 
freq.     291.29  E(vib)   ...       0.27 
freq.     421.14  E(vib)   ...       0.18 
freq.     805.32  E(vib)   ...       0.05 
freq.     885.14  E(vib)   ...       0.04 
freq.    1056.92  E(vib)   ...       0.02 
freq.    1072.89  E(vib)   ...       0.02 
freq.    1133.27  E(vib)   ...       0.01 
freq.    1272.93  E(vib)   ...       0.01 
freq.    1363.69  E(vib)   ...       0.01 
freq.    1402.52  E(vib)   ...       0.00 
freq.    1422.67  E(vib)   ...       0.00 
freq.    1491.57  E(vib)   ...       0.00 
freq.    1496.82  E(vib)   ...       0.00 
freq.    1518.76  E(vib)   ...       0.00 
freq.    2999.16  E(vib)   ...       0.00 
freq.    3028.53  E(vib)   ...       0.00 
freq.    3083.40  E(vib)   ...       0.00 
freq.    3102.58  E(vib)   ...       0.00 
freq.    3117.30  E(vib)   ...       0.00 
freq.    3818.25  E(vib)   ...       0.00 

------------
INNER ENERGY
------------

The inner energy is: U= E(el) + E(ZPE) + E(vib) + E(rot) + E(trans)
    E(el)   - is the total energy from the electronic structure calculation
              = E(kin-el) + E(nuc-el) + E(el-el) + E(nuc-nuc)
    E(ZPE)  - the the zero temperature vibrational energy from the frequency calculation
    E(vib)  - the the finite temperature correction to E(ZPE) due to population
              of excited vibrational states
    E(rot)  - is the rotational thermal energy
    E(trans)- is the translational thermal energy

Summary of contributions to the inner energy U:
Electronic energy                ...   -154.96609920 Eh
Zero point energy                ...      0.07984542 Eh      50.10 kcal/mol
Thermal vibrational correction   ...      0.00145081 Eh       0.91 kcal/mol
Thermal rotational correction    ...      0.00141627 Eh       0.89 kcal/mol
Thermal translational correction ...      0.00141627 Eh       0.89 kcal/mol
-----------------------------------------------------------------------
Total thermal energy                   -154.88197043 Eh


Summary of corrections to the electronic energy:
(perhaps to be used in another calculation)
Total thermal correction                  0.00428335 Eh       2.69 kcal/mol
Non-thermal (ZPE) correction              0.07984542 Eh      50.10 kcal/mol
-----------------------------------------------------------------------
Total correction                          0.08412877 Eh      52.79 kcal/mol


--------
ENTHALPY
--------

The enthalpy is H = U + kB*T
                kB is Boltzmann's constant
Total thermal energy              ...   -154.88197043 Eh 
Thermal Enthalpy correction       ...      0.00094421 Eh       0.59 kcal/mol
-----------------------------------------------------------------------
Total Enthalpy                    ...   -154.88102623 Eh


Note: Only C1 symmetry has been detected, increase convergence thresholds 
      if your molecule has a higher symmetry. Symmetry factor of 1.0 is   
      used for the rotational entropy correction. 
 

Note: Rotational entropy computed according to Herzberg 
Infrared and Raman Spectra, Chapter V,1, Van Nostrand Reinhold, 1945 
Point Group:  C1, Symmetry Number:   1  
Rotational constants in cm-1:     1.142605     0.303579     0.268281 

Vibrational entropy computed according to the QRRHO of S. Grimme
Chem.Eur.J. 2012 18 9955 using a reference frequency of 100.0 cm-1


-------
ENTROPY
-------

The entropy contributions are T*S = T*(S(el)+S(vib)+S(rot)+S(trans))
     S(el)   - electronic entropy
     S(vib)  - vibrational entropy
     S(rot)  - rotational entropy
     S(trans)- translational entropy
The entropies will be listed as multiplied by the temperature to get
units of energy

Electronic entropy                ...      0.00000000 Eh      0.00 kcal/mol
Vibrational entropy               ...      0.00221982 Eh      1.39 kcal/mol
Rotational entropy                ...      0.01063180 Eh      6.67 kcal/mol
Translational entropy             ...      0.01777359 Eh     11.15 kcal/mol
-----------------------------------------------------------------------
Final entropy term                ...      0.03062521 Eh     19.22 kcal/mol

In case the symmetry of your molecule has not been determined correctly
or in case you have a reason to use a different symmetry number we print 
out the resulting rotational entropy values for sn=1,12:

 non-linear molecules -----------------------------------
|  sn= 1 | S(rot)=       0.01063180 Eh      6.67 kcal/mol|
|  sn= 2 | S(rot)=       0.00997734 Eh      6.26 kcal/mol|
|  sn= 3 | S(rot)=       0.00959451 Eh      6.02 kcal/mol|
|  sn= 4 | S(rot)=       0.00932289 Eh      5.85 kcal/mol|
|  sn= 5 | S(rot)=       0.00911220 Eh      5.72 kcal/mol|
|  sn= 6 | S(rot)=       0.00894006 Eh      5.61 kcal/mol|
|  sn= 7 | S(rot)=       0.00879451 Eh      5.52 kcal/mol|
|  sn= 8 | S(rot)=       0.00866843 Eh      5.44 kcal/mol|
|  sn= 9 | S(rot)=       0.00855722 Eh      5.37 kcal/mol|
|  sn=10 | S(rot)=       0.00845774 Eh      5.31 kcal/mol|
|  sn=11 | S(rot)=       0.00836775 Eh      5.25 kcal/mol|
|  sn=12 | S(rot)=       0.00828560 Eh      5.20 kcal/mol|
 linear molecules ---------------------------------------
|  Dinfh | S(rot)=       0.00656809 Eh      4.12 kcal/mol|
|  Cinfv | S(rot)=       0.00722254 Eh      4.53 kcal/mol|
 --------------------------------------------------------


-------------------
GIBBS FREE ENERGY
-------------------

The Gibbs free energy is G = H - T*S

Total enthalpy                    ...   -154.88102623 Eh 
Total entropy correction          ...     -0.03062521 Eh    -19.22 kcal/mol
-----------------------------------------------------------------------
Final Gibbs free energy         ...   -154.91165144 Eh

For completeness - the Gibbs free energy minus the electronic energy
G-E(el)                           ...      0.05444776 Eh     34.17 kcal/mol


Maximum memory used throughout the entire PROP-calculation: 26.9 MB

--------------------------------
SUGGESTED CITATIONS FOR THIS RUN
--------------------------------

Below you find a list of papers that are relevant to this ORCA run
We neither can nor want to force you to cite these papers, but we appreciate if you do
You receive ORCA, which is the product of decades of hard work by many enthusiastic individuals, for free
The only thing we kindly ask in return is that you cite our papers,
We deeply appreciate it, if you show your appreciation for ORCA by not just citing the generic ORCA reference.

Please note that relegating all ORCA citations to the supporting information does *not* help us.
SI sections are not indexed - citations you put there will not count into any citation statistics
But we need these citations in order to attract the funding resources that allow us to do what we are doing

Therefore, if you are a happy ORCA user, please consider citing a few of the papers listed below in the main body of your paper

In addition to the list printed below, the program has created the file opt.bibtex that contains the list in bibtex format
You can import this file easily into all common literature databanks and citation aid programs


List of essential papers. We consider these as the minimum necessary citations

  1. Neese,F.
     Software update: the ORCA program system, version 5.0
     WIRES Comput. Molec. Sci., 2022 12(1)e1606
     doi.org/10.1002/wcms.1606

List of papers to cite with high priority. The work reported in these papers was absolutely
necessary for this run to complete.
Our perspective: the developers of density functionals and basis sets usually get cited in chemistry papers
Good! But without the algorithms to do something with them, the functionals or basis sets would not do anything.
Hence, in our opinion, the algorithm design and method developments papers are equally worthy of getting cited

  1. Neese,F.
     An improvement of the resolution of the identity approximation for the formation of the Coulomb matrix
     J. Comp. Chem., 2003 24(14)1740-1747
     doi.org/10.1002/jcc.10318
  2. Neese,F.; Wennmohs,F.; Hansen,A.; Becker,U.
     Efficient, approximate and parallel Hartree-Fock and hybrid DFT calculations. A 'chain-of-spheres' algorithm for the Hartree-Fock exchange
     Chem. Phys., 2009 356(1-3)98-109
     doi.org/10.1016/j.chemphys.2008.10.036
  3. Bykov,D.; Petrenko,T.; Izsak,R.; Kossmann,S.; Becker,U.; Valeev,E.; Neese,F.
     Efficient implementation of the analytic second derivatives of Hartree-Fock and hybrid DFT energies: a detailed analysis of different approximations
     Molec. Phys., 2015 113 1961-1977
     doi.org/10.1080/00268976.2015.1025114
  4. Helmich-Paris,B.; de Souza,B.; Neese,F.; Izsák,R.
     An improved chain of spheres for exchange algorithm
     J. Chem. Phys., 2021 155 104109
     doi.org/doi: 10.1063/5.0058766.
  5. Neese,F.
     The SHARK Integral Generation and Digestion System
     J. Comp. Chem., 2022  1-16
     doi.org/10.1002/jcc.26942
  6. Caldeweyher,E.; Bannwarth,C.; Grimme,S.
     Extension of the D3 dispersion coefficient model
     J. Chem. Phys., 2017 147 034112-XXXX
     doi.org/10.1063/1.4993215
  7. Caldeweyher,E.; Ehlert,S.; Hansen,A.; Neugebauer,H.; Spicher,S.; Bannwarth,C.; Grimme,S.
     A generally applicable atomic-charge dependent London dispersion correction
     J. Chem. Phys., 2019 150 154122-XXXX
     doi.org/10.1063/1.5090222
  8. Caldeweyher,E.; Mewes,J.; Ehlert,S.; Grimme,S.
     Extension and evaluation of the D4 London-dispersion model for periodic systems
     Phys. Chem. Chem. Phys., 2020 22(16)8499-8512
     doi.org/10.1039/D0CP00502A

List of suggested additional citations. These are papers that are important in the 'surrounding' of 
of this run, or papers that preceded the highly important papers. If you like your results we are grateful for a citation.

  1. Izsak,R.; Neese,F.
     An overlap fitted chain of spheres exchange method
     J. Chem. Phys., 2011 135 144105
     doi.org/10.1063/1.3646921
  2. Izsak,R.; Hansen,A.; Neese,F.
     The resolution of identity and chain of spheres approximations for the LPNO-CCSD singles Fock term
     Molec. Phys., 2012 110 2413-2417
     doi.org/10.1080/00268976.2012.687466
  3. Neese,F.
     The ORCA program system
     WIRES Comput. Molec. Sci., 2012 2(1)73-78
     doi.org/10.1002/wcms.81
  4. Izsak,R.; Neese,F.; Klopper,W.
     Robust fitting techniques in the chain of spheres approximation to the Fock exchange: The role of the complementary space
     J. Chem. Phys., 2013 139 
     doi.org/10.1063/1.4819264
  5. Neese,F.
     Software update: the ORCA program system, version 4.0
     WIRES Comput. Molec. Sci., 2018 8(1)1-6
     doi.org/10.1002/wcms.1327
  6. Neese,F.; Wennmohs,F.; Becker,U.; Riplinger,C.
     The ORCA quantum chemistry program package
     J. Chem. Phys., 2020 152 Art. No. L224108
     doi.org/10.1063/5.0004608

List of optional additional citations

  1. Neese,F.
     Approximate second-order SCF convergence for spin unrestricted wavefunctions
     Chem. Phys. Lett., 2000 325(1-3)93-98
     doi.org/10.1016/s0009-2614(00)00662-x

Timings for individual modules:

Sum of individual times          ...      120.375 sec (=   2.006 min)
Startup calculation              ...        2.767 sec (=   0.046 min)   2.3 %
SCF iterations                   ...       33.561 sec (=   0.559 min)  27.9 %
Property integrals               ...       11.284 sec (=   0.188 min)   9.4 %
SCF Response                     ...        3.564 sec (=   0.059 min)   3.0 %
Property calculations            ...       36.000 sec (=   0.600 min)  29.9 %
SCF Gradient evaluation          ...       33.155 sec (=   0.553 min)  27.5 %
Geometry relaxation              ...        0.044 sec (=   0.001 min)   0.0 %
                             ****ORCA TERMINATED NORMALLY****
TOTAL RUN TIME: 0 days 0 hours 2 minutes 1 seconds 155 msec
