
                                 *****************
                                 * O   R   C   A *
                                 *****************

                                            #,                                       
                                            ###                                      
                                            ####                                     
                                            #####                                    
                                            ######                                   
                                           ########,                                 
                                     ,,################,,,,,                         
                               ,,#################################,,                 
                          ,,##########################################,,             
                       ,#########################################, ''#####,          
                    ,#############################################,,   '####,        
                  ,##################################################,,,,####,       
                ,###########''''           ''''###############################       
              ,#####''   ,,,,##########,,,,          '''####'''          '####       
            ,##' ,,,,###########################,,,                        '##       
           ' ,,###''''                  '''############,,,                           
         ,,##''                                '''############,,,,        ,,,,,,###''
      ,#''                                            '''#######################'''  
     '                                                          ''''####''''         
             ,#######,   #######,   ,#######,      ##                                
            ,#'     '#,  ##    ##  ,#'     '#,    #''#        ,####,   ,####,        
            ##       ##  ##   ,#'  ##            #'  '#       #'       #'  '#        
            ##       ##  #######   ##           ,######,      #####,   #    #        
            '#,     ,#'  ##    ##  '#,     ,#' ,#      #,     #,   #   #,  ,#        
             '#######'   ##     ##  '#######'  #'      '#     '####' # '####'        



                #########################################################
                #                        -***-                          #
                #          Department of theory and spectroscopy        #
                #                                                       #
                #                      Frank Neese                      #
                #                                                       #
                #     Directorship, Architecture, Infrastructure        #
                #                    SHARK, DRIVERS                     #
                #        Core code/Algorithms in most modules           #
                #                                                       #
                #        Max Planck Institute fuer Kohlenforschung      #
                #                Kaiser Wilhelm Platz 1                 #
                #                 D-45470 Muelheim/Ruhr                 #
                #                      Germany                          #
                #                                                       #
                #                  All rights reserved                  #
                #                        -***-                          #
                #########################################################


                         Program Version 6.0.0  -   RELEASE  -


 With contributions from (in alphabetic order):
   Daniel Aravena         : Magnetic Suceptibility
   Michael Atanasov       : Ab Initio Ligand Field Theory (pilot matlab implementation)
   Alexander A. Auer      : GIAO ZORA, VPT2 properties, NMR spectrum
   Ute Becker             : All parallelization in ORCA, NUMFREQ, NUMCALC
   Giovanni Bistoni       : ED, misc. LED, open-shell LED, HFLD
   Martin Brehm           : Molecular dynamics
   Dmytro Bykov           : pre 5.0 version of the SCF Hessian
   Marcos Casanova-Páez   : Triplet and SCS-CIS(D). UHF-(DLPNO)-IP/EA/STEOM-CCSD. UHF-CVS-IP/STEOM-CCSD
   Vijay G. Chilkuri      : MRCI spin determinant printing, contributions to CSF-ICE
   Pauline Colinet        : FMM embedding
   Dipayan Datta          : RHF DLPNO-CCSD density
   Achintya Kumar Dutta   : EOM-CC, STEOM-CC
   Nicolas Foglia         : Exact transition moments, OPA infrastructure, MCD improvements
   Dmitry Ganyushin       : Spin-Orbit,Spin-Spin,Magnetic field MRCI
   Miquel Garcia          : C-PCM and meta-GGA Hessian, CCSD/C-PCM, Gaussian charge scheme
   Tiago L. C. Gouveia    : GS-ROHF, GS-ROCIS
   Yang Guo               : DLPNO-NEVPT2, F12-NEVPT2, CIM, IAO-localization
   Andreas Hansen         : Spin unrestricted coupled pair/coupled cluster methods
   Ingolf Harden          : AUTO-CI MPn and infrastructure 
   Benjamin Helmich-Paris : MC-RPA, TRAH-(SCF,CASSCF), AVAS, COSX integrals, SCF dyn. polar.
   Lee Huntington         : MR-EOM, pCC
   Robert Izsak           : Overlap fitted RIJCOSX, COSX-SCS-MP3, EOM
   Riya Kayal             : Wick's Theorem for AUTO-CI, AUTO-CI UHF-CCSDT
   Emily Kempfer          : AUTO-CI, RHF CISDT and CCSDT
   Christian Kollmar      : KDIIS, OOCD, Brueckner-CCSD(T), CCSD density, CASPT2, CASPT2-K, improved NEVPT2
   Axel Koslowski         : Symmetry handling
   Simone Kossmann        : Meta GGA functionals, TD-DFT gradient, OOMP2, (MP2 Hessian; deprecated post 5.0)
   Lucas Lang             : DCDCAS
   Marvin Lechner         : AUTO-CI (C++ implementation), FIC-MRCC
   Spencer Leger          : CASSCF response
   Dagmar Lenk            : GEPOL surface, SMD, ORCA-2-JSON
   Dimitrios Liakos       : Extrapolation schemes; Compound Job, initial MDCI parallelization
   Dimitrios Manganas     : Further ROCIS development; embedding schemes. LFT, Crystal Embedding
   Dimitrios Pantazis     : SARC Basis sets
   Anastasios Papadopoulos: AUTO-CI, single reference methods and gradients
   Taras Petrenko         : pre 6.0 DFT Hessian and TD-DFT gradient, (ASA, deprecated), ECA, 1-Electron XAS/XES, NRVS
   Peter Pinski           : DLPNO-MP2, DLPNO-MP2 Gradient
   Christoph Reimann      : Effective Core Potentials
   Marius Retegan         : Local ZFS, SOC
   Christoph Riplinger    : Optimizer, TS searches, QM/MM, DLPNO-CCSD(T), (RO)-DLPNO pert. Triples
   Michael Roemelt        : Original ROCIS implementation
   Masaaki Saitow         : Open-shell DLPNO-CCSD energy and density
   Barbara Sandhoefer     : DKH picture change effects
   Kantharuban Sivalingam : CASSCF convergence/infrastructure, NEVPT2 and variants, FIC-MRCI
   Bernardo de Souza      : ESD, SOC TD-DFT
   Georgi Stoychev        : AutoAux, RI-MP2 NMR, DLPNO-MP2 response, X2C
   Van Anh Tran           : RI-MP2 g-tensors
   Willem Van den Heuvel  : Paramagnetic NMR
   Zikuan Wang            : NOTCH, Electric field optimization 
   Frank Wennmohs         : Technical directorship and infrastructure
   Hang Xu                : AUTO-CI-Response properties 


 We gratefully acknowledge several colleagues who have allowed us to
 interface, adapt or use parts of their codes:
   Stefan Grimme, W. Hujo, H. Kruse, P. Pracht,  : VdW corrections, initial TS optimization,
                  C. Bannwarth, S. Ehlert,         DFT functionals, gCP, sTDA/sTD-DF
                  L. Wittmann, M. Mueller
   Ed Valeev, F. Pavosevic, A. Kumar             : LibInt (2-el integral package), F12 methods
   Garnet Chan, S. Sharma, J. Yang, R. Olivares  : DMRG
   Ulf Ekstrom                                   : XCFun DFT Library
   Mihaly Kallay                                 : mrcc  (arbitrary order and MRCC methods)
   Frank Weinhold                                : gennbo (NPA and NBO analysis)
   Simon Mueller                                 : openCOSMO-RS
   Christopher J. Cramer and Donald G. Truhlar   : smd solvation model
   Lars Goerigk                                  : TD-DFT with DH, B97 family of functionals
   V. Asgeirsson, H. Jonsson                     : NEB implementation
   FAccTs GmbH                                   : IRC, NEB, NEB-TS, DLPNO-Multilevel, CI-OPT
                                                   MM, QMMM, 2- and 3-layer-ONIOM, Crystal-QMMM,
                                                   LR-CPCM, SF, NACMEs, symmetry and pop. for TD-DFT,
                                                   nearIR, NL-DFT gradient (VV10), updates on ESD,
                                                   ML-optimized integration grids, MBIS, APM,
                                                   GOAT, DOCKER, SOLVATOR, interface openCOSMO-RS
   S Lehtola, MJT Oliveira, MAL Marques          : LibXC Library
   Liviu Ungur et al                             : ANISO software


 Your calculation uses the libint2 library for the computation of 2-el integrals
 For citations please refer to: http://libint.valeyev.net

 Your ORCA version has been built with support for libXC version: 6.2.2
 For citations please refer to: https://libxc.gitlab.io

 This ORCA versions uses:
   CBLAS   interface :  Fast vector & matrix operations
   LAPACKE interface :  Fast linear algebra routines
   SCALAPACK package :  Parallel linear algebra routines
   Shared memory     :  Shared parallel matrices




***************************************
The coordinates will be read from file: Mol_C123C_OCCO2_OCCO3_CCCC1_UFF.xyz
***************************************



Information: The global flag for NMR shieldings has been found
             ==>> will calculate the shieldings for all atoms in the system

================================================================================

----- Orbital basis set information -----
Your calculation utilizes the basis: 6-31+G(d,p)
   H-He, Li-Ne : W. J. Hehre, R. Ditchfield and J.A. Pople, J. Chem. Phys. 56, 2257 (1972).
                 Note: He and Ne are unpublished basis sets taken from the Gaussian program.
                 Note: Li and B from J. D. Dill and J. A. Pople, J. Chem. Phys. 62, 2921 (1975).
   Na - Ar     : M. M. Francl, W. J. Pietro, W. J. Hehre, J. S. Binkley, M. S. Gordon, 
                 D. J. DeFrees and J. A. Pople, J. Chem. Phys. 77, 3654 (1982).
   K - Zn      : V. A. Rassolov, J. A. Pople, M. A. Ratner, and T. L. Windus, J. Chem. Phys. 109, 1223 (1998).
   Additional Pol./Diff. from the 6-311G equivalent.

----- AuxJ basis set information -----
Your calculation utilizes the auxiliary basis: def2/J
   F. Weigend, Phys. Chem. Chem. Phys. 8, 1057 (2006).

================================================================================
                                        WARNINGS
                       Please study these warnings very carefully!
================================================================================


================================================================================
                                       INPUT FILE
================================================================================
NAME = nmr.com
|  1> ! B3LYP 6-31+G(d,p) def2/J RIJCOSX NMR
|  2> 
|  3> * xyzfile 0 1 Mol_C123C_OCCO2_OCCO3_CCCC1_UFF.xyz
|  4> 
|  5> 
|  6>                          ****END OF INPUT****
================================================================================

                       ****************************
                       * Single Point Calculation *
                       ****************************

---------------------------------
CARTESIAN COORDINATES (ANGSTROEM)
---------------------------------
  C     -0.124586    0.206527    0.705092
  C     -0.282945   -0.009507   -0.866723
  O     -0.618060    1.218791   -1.502544
  C     -1.649460    1.881565   -0.806080
  C     -1.145344    2.316606    0.575637
  O      0.008145    1.596028    0.972650
  O     -1.307821   -0.944194   -1.186971
  C     -1.311260   -2.051768   -0.313158
  C     -1.571435   -1.628016    1.139111
  O     -1.265171   -0.272917    1.410018
  C      1.050943   -0.464442   -1.524510
  C      2.241447    0.313669   -0.953512
  C      2.431970    0.060678    0.555575
  C      1.163059   -0.461748    1.255877
  H     -1.957510    2.775998   -1.387934
  H     -2.549295    1.232456   -0.708460
  H     -0.875756    3.393367    0.536645
  H     -1.949716    2.208771    1.335890
  H     -0.370540   -2.634475   -0.386533
  H     -2.117608   -2.744871   -0.634090
  H     -2.650199   -1.774658    1.359379
  H     -1.014445   -2.288301    1.838078
  H      1.000551   -0.299634   -2.623328
  H      1.241783   -1.546820   -1.379657
  H      3.166538    0.023160   -1.497084
  H      2.082622    1.400343   -1.130156
  H      3.247886   -0.679771    0.705519
  H      2.756993    1.006986    1.040685
  H      1.244478   -0.271273    2.348292
  H      1.124740   -1.562552    1.122289

----------------------------
CARTESIAN COORDINATES (A.U.)
----------------------------
  NO LB      ZA    FRAG     MASS         X           Y           Z
   0 C     6.0000    0    12.011   -0.235433    0.390279    1.332431
   1 C     6.0000    0    12.011   -0.534689   -0.017966   -1.637869
   2 O     8.0000    0    15.999   -1.167964    2.303181   -2.839397
   3 C     6.0000    0    12.011   -3.117028    3.555643   -1.523270
   4 C     6.0000    0    12.011   -2.164386    4.377751    1.087796
   5 O     8.0000    0    15.999    0.015392    3.016056    1.838042
   6 O     8.0000    0    15.999   -2.471424   -1.784268   -2.243050
   7 C     6.0000    0    12.011   -2.477922   -3.877280   -0.591783
   8 C     6.0000    0    12.011   -2.969582   -3.076504    2.152608
   9 O     8.0000    0    15.999   -2.390827   -0.515738    2.664548
  10 C     6.0000    0    12.011    1.985994   -0.877668   -2.880906
  11 C     6.0000    0    12.011    4.235721    0.592749   -1.801877
  12 C     6.0000    0    12.011    4.595757    0.114665    1.049885
  13 C     6.0000    0    12.011    2.197863   -0.872577    2.373264
  14 H     1.0000    0     1.008   -3.699158    5.245876   -2.622815
  15 H     1.0000    0     1.008   -4.817469    2.329004   -1.338795
  16 H     1.0000    0     1.008   -1.654939    6.412534    1.014112
  17 H     1.0000    0     1.008   -3.684429    4.173972    2.524466
  18 H     1.0000    0     1.008   -0.700219   -4.978436   -0.730442
  19 H     1.0000    0     1.008   -4.001699   -5.187054   -1.198256
  20 H     1.0000    0     1.008   -5.008150   -3.353618    2.568854
  21 H     1.0000    0     1.008   -1.917023   -4.324262    3.473464
  22 H     1.0000    0     1.008    1.890767   -0.566226   -4.957371
  23 H     1.0000    0     1.008    2.346630   -2.923066   -2.607174
  24 H     1.0000    0     1.008    5.983890    0.043766   -2.829079
  25 H     1.0000    0     1.008    3.935585    2.646265   -2.135685
  26 H     1.0000    0     1.008    6.137615   -1.284581    1.333238
  27 H     1.0000    0     1.008    5.209962    1.902928    1.966610
  28 H     1.0000    0     1.008    2.351723   -0.512632    4.437629
  29 H     1.0000    0     1.008    2.125451   -2.952795    2.120819

--------------------------------
INTERNAL COORDINATES (ANGSTROEM)
--------------------------------
 C      0   0   0     0.000000000000     0.00000000     0.00000000
 C      1   0   0     1.594475040966     0.00000000     0.00000000
 O      2   1   0     1.423125568624   110.29629533     0.00000000
 C      3   2   1     1.410006183806   110.93237210   313.39923058
 C      4   3   2     1.533797731523   109.74730764    66.12656884
 O      5   4   3     1.416823506783   112.07126684   340.68808020
 O      2   1   3     1.423576265905   112.47149320   240.31313268
 C      7   2   1     1.410773245836   112.20273271   319.27782622
 C      8   7   2     1.535038122162   111.69571259    61.40363116
 O      9   8   7     1.415443937479   114.12222430   337.71360833
 C      2   1   3     1.555283507319   111.80067730   116.92140632
 C     11   2   1     1.532577964849   111.10845258   318.32393011
 C     12  11   2     1.541962072549   112.16712103    62.73054800
 C     13  12  11     1.540612521889   113.49932221   339.03525133
 H      4   3   2     1.110612115594   108.82438794   185.99964490
 H      4   3   2     1.113811108540   111.11947863   303.48104832
 H      5   4   3     1.110681014931   108.85201964    99.80161855
 H      5   4   3     1.112037465924   110.52572119   217.12966793
 H      8   7   2     1.109002009409   111.68236446   296.98808087
 H      8   7   2     1.110669264154   108.22321141   181.17279387
 H      9   8   7     1.110744631175   108.40790481    97.30553485
 H      9   8   7     1.111201605657   110.24969686   213.49860183
 H     11   2   1     1.112250883413   109.61082580   197.60492330
 H     11   2   1     1.108577661733   112.20837181    79.68018568
 H     12  11   2     1.111602157494   109.36514686   184.34402155
 H     12  11   2     1.112334871177   109.02128638   301.31790344
 H     13  12  11     1.111965306920   109.38334963   100.34774448
 H     13  12  11     1.111966948022   108.87166906   217.02381896
 H     14  13  12     1.111881428665   109.15949985   200.45985618
 H     14  13  12     1.109542043332   108.06818679    84.53786428

---------------------------
INTERNAL COORDINATES (A.U.)
---------------------------
 C      0   0   0     0.000000000000     0.00000000     0.00000000
 C      1   0   0     3.013121154798     0.00000000     0.00000000
 O      2   1   0     2.689317578879   110.29629533     0.00000000
 C      3   2   1     2.664525534529   110.93237210   313.39923058
 C      4   3   2     2.898457657409   109.74730764    66.12656884
 O      5   4   3     2.677408407923   112.07126684   340.68808020
 O      2   1   3     2.690169273311   112.47149320   240.31313268
 C      7   2   1     2.665975071693   112.20273271   319.27782622
 C      8   7   2     2.900801656015   111.69571259    61.40363116
 O      9   8   7     2.674801399754   114.12222430   337.71360833
 C      2   1   3     2.939059889437   111.80067730   116.92140632
 C     11   2   1     2.896152632447   111.10845258   318.32393011
 C     12  11   2     2.913886026011   112.16712103    62.73054800
 C     13  12  11     2.911335744860   113.49932221   339.03525133
 H      4   3   2     2.098752739488   108.82438794   185.99964490
 H      4   3   2     2.104797960059   111.11947863   303.48104832
 H      5   4   3     2.098882940366   108.85201964    99.80161855
 H      5   4   3     2.101446261256   110.52572119   217.12966793
 H      8   7   2     2.095710079752   111.68236446   296.98808087
 H      8   7   2     2.098860734615   108.22321141   181.17279387
 H      9   8   7     2.099003157644   108.40790481    97.30553485
 H      9   8   7     2.099866714265   110.24969686   213.49860183
 H     11   2   1     2.101849561862   109.61082580   197.60492330
 H     11   2   1     2.094908178858   112.20837181    79.68018568
 H     12  11   2     2.100623647540   109.36514686   184.34402155
 H     12  11   2     2.102008275736   109.02128638   301.31790344
 H     13  12  11     2.101309900500   109.38334963   100.34774448
 H     13  12  11     2.101313001734   108.87166906   217.02381896
 H     14  13  12     2.101151393571   109.15949985   200.45985618
 H     14  13  12     2.096730595969   108.06818679    84.53786428

---------------------
BASIS SET INFORMATION
---------------------
There are 3 groups of distinct atoms

 Group   1 Type C   : 11s5p1d contracted to 4s3p1d pattern {6311/311/1}
 Group   2 Type O   : 11s5p1d contracted to 4s3p1d pattern {6311/311/1}
 Group   3 Type H   : 4s1p contracted to 2s1p pattern {31/1}

Atom   0C    basis set group =>   1
Atom   1C    basis set group =>   1
Atom   2O    basis set group =>   2
Atom   3C    basis set group =>   1
Atom   4C    basis set group =>   1
Atom   5O    basis set group =>   2
Atom   6O    basis set group =>   2
Atom   7C    basis set group =>   1
Atom   8C    basis set group =>   1
Atom   9O    basis set group =>   2
Atom  10C    basis set group =>   1
Atom  11C    basis set group =>   1
Atom  12C    basis set group =>   1
Atom  13C    basis set group =>   1
Atom  14H    basis set group =>   3
Atom  15H    basis set group =>   3
Atom  16H    basis set group =>   3
Atom  17H    basis set group =>   3
Atom  18H    basis set group =>   3
Atom  19H    basis set group =>   3
Atom  20H    basis set group =>   3
Atom  21H    basis set group =>   3
Atom  22H    basis set group =>   3
Atom  23H    basis set group =>   3
Atom  24H    basis set group =>   3
Atom  25H    basis set group =>   3
Atom  26H    basis set group =>   3
Atom  27H    basis set group =>   3
Atom  28H    basis set group =>   3
Atom  29H    basis set group =>   3
---------------------------------
AUXILIARY/J BASIS SET INFORMATION
---------------------------------
There are 3 groups of distinct atoms

 Group   1 Type C   : 12s5p4d2f1g contracted to 6s4p3d1f1g pattern {711111/2111/211/2/1}
 Group   2 Type O   : 12s5p4d2f1g contracted to 6s4p3d1f1g pattern {711111/2111/211/2/1}
 Group   3 Type H   : 5s2p1d contracted to 3s1p1d pattern {311/2/1}

Atom   0C    basis set group =>   1
Atom   1C    basis set group =>   1
Atom   2O    basis set group =>   2
Atom   3C    basis set group =>   1
Atom   4C    basis set group =>   1
Atom   5O    basis set group =>   2
Atom   6O    basis set group =>   2
Atom   7C    basis set group =>   1
Atom   8C    basis set group =>   1
Atom   9O    basis set group =>   2
Atom  10C    basis set group =>   1
Atom  11C    basis set group =>   1
Atom  12C    basis set group =>   1
Atom  13C    basis set group =>   1
Atom  14H    basis set group =>   3
Atom  15H    basis set group =>   3
Atom  16H    basis set group =>   3
Atom  17H    basis set group =>   3
Atom  18H    basis set group =>   3
Atom  19H    basis set group =>   3
Atom  20H    basis set group =>   3
Atom  21H    basis set group =>   3
Atom  22H    basis set group =>   3
Atom  23H    basis set group =>   3
Atom  24H    basis set group =>   3
Atom  25H    basis set group =>   3
Atom  26H    basis set group =>   3
Atom  27H    basis set group =>   3
Atom  28H    basis set group =>   3
Atom  29H    basis set group =>   3
------------------------------------------------------------------------------
                             ORCA STARTUP CALCULATIONS
                           -- RI-GTO INTEGRALS CHOSEN --
------------------------------------------------------------------------------
------------------------------------------------------------------------------
                   ___                                                        
                  /   \      - P O W E R E D   B Y -                         
                 /     \                                                     
                 |  |  |   _    _      __       _____    __    __             
                 |  |  |  | |  | |    /  \     |  _  \  |  |  /  |          
                  \  \/   | |  | |   /    \    | | | |  |  | /  /          
                 / \  \   | |__| |  /  /\  \   | |_| |  |  |/  /          
                |  |  |   |  __  | /  /__\  \  |    /   |      \           
                |  |  |   | |  | | |   __   |  |    \   |  |\   \          
                \     /   | |  | | |  |  |  |  | |\  \  |  | \   \       
                 \___/    |_|  |_| |__|  |__|  |_| \__\ |__|  \__/        
                                                                              
                      - O R C A' S   B I G   F R I E N D -                    
                                      &                                       
                       - I N T E G R A L  F E E D E R -                       
                                                                              
 v1 FN, 2020, v2 2021, v3 2022-2024                                           
------------------------------------------------------------------------------


----------------------
SHARK INTEGRAL PACKAGE
----------------------

Number of atoms                             ...     30
Number of basis functions                   ...    332
Number of shells                            ...    160
Maximum angular momentum                    ...      2
Integral batch strategy                     ... SHARK/LIBINT Hybrid
RI-J (if used) integral strategy            ... SPLIT-RIJ (Revised 2003 algorithm where possible)
Printlevel                                  ...      1
Contraction scheme used                     ... SEGMENTED contraction
Prescreening option                         ... SCHWARTZ
   Thresh                                   ... 1.000e-10
   Tcut                                     ... 1.000e-11
   Tpresel                                  ... 1.000e-11 
Coulomb Range Separation                    ... NOT USED
Exchange Range Separation                   ... NOT USED
Multipole approximations                    ... NOT USED
Finite Nucleus Model                        ... NOT USED
CABS basis                                  ... NOT available
Auxiliary Coulomb fitting basis             ... AVAILABLE
   # of basis functions in Aux-J            ...    862
   # of shells in Aux-J                     ...    290
   Maximum angular momentum in Aux-J        ...      4
Auxiliary J/K fitting basis                 ... NOT available
Auxiliary Correlation fitting basis         ... NOT available
Auxiliary 'external' fitting basis          ... NOT available

Checking pre-screening integrals            ... done (  0.0 sec) Dimension = 160
Check shell pair data                       ... done (  0.0 sec)
Shell pair information
Shell pair cut-off parameter TPreSel        ...   1.0e-11
Total number of shell pairs                 ...     12880
Shell pairs after pre-screening             ...     11736
Total number of primitive shell pairs       ...     51063
Primitive shell pairs kept                  ...     31659
          la=0 lb=0:   3562 shell pairs
          la=1 lb=0:   4658 shell pairs
          la=1 lb=1:   1556 shell pairs
          la=2 lb=0:   1118 shell pairs
          la=2 lb=1:    738 shell pairs
          la=2 lb=2:    104 shell pairs

Calculating one electron integrals          ... done (  0.0 sec)
Calculating RI/J V-Matrix + Cholesky decomp.... done (  0.0 sec)
Calculating Nuclear repulsion               ... done (  0.0 sec) ENN=   1082.080958906841 Eh

Diagonalization of the overlap matrix:
Smallest eigenvalue                        ... 3.058e-06
Time for diagonalization                   ...    0.007 sec
Threshold for overlap eigenvalues          ... 1.000e-07
Number of eigenvalues below threshold      ... 0
Time for construction of square roots      ...    0.002 sec
Total time needed                          ...    0.009 sec

-------------------
DFT GRID GENERATION
-------------------

General Integration Accuracy     IntAcc      ... 4.388
Radial Grid Type                 RadialGrid  ... OptM3 with GC (2021)
Angular Grid (max. ang.)         AngularGrid ... 4 (Lebedev-302)
Angular grid pruning method      GridPruning ... 4 (adaptive)
Weight generation scheme         WeightScheme... mBecke (2022)
Basis function cutoff            BFCut       ... 1.0000e-10
Integration weight cutoff        WCut        ... 1.0000e-14
Partially contracted basis set               ... off
Rotationally invariant grid construction     ... off
Angular grids for H and He will be reduced by one unit
Diffuse basis detected: some atoms will have their outermost
                        angular grid increased by 1.

Total number of grid points                  ...   137168
Total number of batches                      ...     2159
Average number of points per batch           ...       63
Average number of grid points per atom       ...     4572

--------------------
COSX GRID GENERATION
--------------------

GRIDX 1
-------
General Integration Accuracy     IntAcc      ... 3.816
Radial Grid Type                 RadialGrid  ... OptM3 with GC (2021)
Angular Grid (max. ang.)         AngularGrid ... 1 (Lebedev-50)
Angular grid pruning method      GridPruning ... 4 (adaptive)
Weight generation scheme         WeightScheme... mBecke (2022)
Basis function cutoff            BFCut       ... 1.0000e-10
Integration weight cutoff        WCut        ... 1.0000e-14
Partially contracted basis set               ... on
Rotationally invariant grid construction     ... off
Angular grids for H and He will be reduced by one unit
Diffuse basis detected: some atoms will have their outermost
                        angular grid increased by 1.

Total number of grid points                  ...    17479
Total number of batches                      ...      157
Average number of points per batch           ...      111
Average number of grid points per atom       ...      583
UseSFitting                                  ... on

GRIDX 2
-------
General Integration Accuracy     IntAcc      ... 4.020
Radial Grid Type                 RadialGrid  ... OptM3 with GC (2021)
Angular Grid (max. ang.)         AngularGrid ... 2 (Lebedev-110)
Angular grid pruning method      GridPruning ... 4 (adaptive)
Weight generation scheme         WeightScheme... mBecke (2022)
Basis function cutoff            BFCut       ... 1.0000e-10
Integration weight cutoff        WCut        ... 1.0000e-14
Partially contracted basis set               ... on
Rotationally invariant grid construction     ... off
Angular grids for H and He will be reduced by one unit
Diffuse basis detected: some atoms will have their outermost
                        angular grid increased by 1.

Total number of grid points                  ...    39448
Total number of batches                      ...      322
Average number of points per batch           ...      122
Average number of grid points per atom       ...     1315
UseSFitting                                  ... on

GRIDX 3
-------
General Integration Accuracy     IntAcc      ... 4.338
Radial Grid Type                 RadialGrid  ... OptM3 with GC (2021)
Angular Grid (max. ang.)         AngularGrid ... 3 (Lebedev-194)
Angular grid pruning method      GridPruning ... 4 (adaptive)
Weight generation scheme         WeightScheme... mBecke (2022)
Basis function cutoff            BFCut       ... 1.0000e-10
Integration weight cutoff        WCut        ... 1.0000e-14
Partially contracted basis set               ... on
Rotationally invariant grid construction     ... off
Angular grids for H and He will be reduced by one unit
Diffuse basis detected: some atoms will have their outermost
                        angular grid increased by 1.

Total number of grid points                  ...    85146
Total number of batches                      ...      681
Average number of points per batch           ...      125
Average number of grid points per atom       ...     2838
UseSFitting                                  ... on
Initializing property integral containers    ... done (  0.0 sec)

SHARK setup successfully completed in   2.6 seconds

Maximum memory used throughout the entire STARTUP-calculation: 64.0 MB
-------------------------------------------------------------------------------
                                 ORCA GUESS
                   Start orbitals & Density for SCF / CASSCF
-------------------------------------------------------------------------------

------------
SCF SETTINGS
------------
Hamiltonian:
 Density Functional     Method          .... DFT(GTOs)
 Exchange Functional    Exchange        .... B88
   X-Alpha parameter    XAlpha          ....  0.666667
   Becke's b parameter  XBeta           ....  0.004200
 Correlation Functional Correlation     .... LYP
 LDA part of GGA corr.  LDAOpt          .... VWN-5
 Gradients option       PostSCFGGA      .... off
 Hybrid DFT is turned on
   Fraction HF Exchange ScalHFX         ....  0.200000
   Scaling of DF-GGA-X  ScalDFX         ....  0.720000
   Scaling of DF-GGA-C  ScalDFC         ....  0.810000
   Scaling of DF-LDA-C  ScalLDAC        ....  1.000000
   Perturbative correction              ....  0.000000
   NL short-range parameter             ....  4.800000
 RI-approximation to the Coulomb term is turned on
   Number of AuxJ basis functions       .... 862
   RIJ-COSX (HFX calculated with COS-X)).... on


General Settings:
 Integral files         IntName         .... nmr
 Hartree-Fock type      HFTyp           .... RHF
 Total Charge           Charge          ....    0
 Multiplicity           Mult            ....    1
 Number of Electrons    NEL             ....  108
 Basis Dimension        Dim             ....  332
 Nuclear Repulsion      ENuc            ....   1082.0809589068 Eh

Convergence Acceleration:
 AO-DIIS                CNVDIIS         .... on
   Start iteration      DIISMaxIt       ....    12
   Startup error        DIISStart       ....  0.200000
   # of expansion vecs  DIISMaxEq       ....     5
   Bias factor          DIISBfac        ....   1.050
   Max. coefficient     DIISMaxC        ....  10.000
 MO-DIIS                CNVKDIIS        .... off
 Trust-Rad. Augm. Hess. CNVTRAH         .... auto
   Auto Start mean grad. ratio tolernc. ....  1.125000
   Auto Start start iteration           ....    50
   Auto Start num. interpolation iter.  ....    10
   Max. Number of Micro iterations      ....    24
   Max. Number of Macro iterations      .... Maxiter - #DIIS iter
   Number of Davidson start vectors     ....     2
   Converg. threshold    (grad. norm)   ....   5.000e-05
   Grad. Scal. Fac. for Micro threshold ....   0.100
   Minimum threshold for Micro iter.    ....   1.000e-02
   NR start threshold (gradient norm)   ....   1.000e-04
   Initial trust radius                 ....   0.400
   Minimum AH scaling param. (alpha)    ....   1.000
   Maximum AH scaling param. (alpha)    .... 1000.000
   Quad. conv. algorithm                .... NR
   White noise on init. David. guess    .... on
   Maximum white noise                  ....   0.010
   Pseudo random numbers                .... off
   Inactive MOs                         .... canonical
   Orbital update algorithm             .... Taylor
   Preconditioner                       .... Diag
   Full preconditioner red. dimension   ....   250
 SOSCF                  CNVSOSCF        .... on
   Start iteration      SOSCFMaxIt      ....   150
   Startup grad/error   SOSCFStart      ....  0.003300
   Hessian update       SOSCFHessUp     .... L-BFGS
 Level Shifting         CNVShift        .... on
   Level shift para.    LevelShift      ....    0.2500
   Turn off err/grad.   ShiftErr        ....    0.0010
 Zerner damping         CNVZerner       .... off
 Static damping         CNVDamp         .... on
   Fraction old density DampFac         ....    0.7000
   Max. Damping (<1)    DampMax         ....    0.9800
   Min. Damping (>=0)   DampMin         ....    0.0000
   Turn off err/grad.   DampErr         ....    0.1000

SCF Procedure:
 Maximum # iterations   MaxIter         ....   125
 SCF integral mode      SCFMode         .... Direct
   Integral package                     .... SHARK and LIBINT hybrid scheme
 Reset frequency        DirectResetFreq ....    20
 Integral Threshold     Thresh          ....  1.000e-10 Eh
 Primitive CutOff       TCut            ....  1.000e-11 Eh

Convergence Tolerance:
 Convergence Check Mode ConvCheckMode   .... Total+1el-Energy
 Convergence forced     ConvForced      .... 0
 Energy Change          TolE            ....  1.000e-06 Eh
 1-El. energy change                    ....  1.000e-03 Eh
 Orbital Gradient       TolG            ....  5.000e-05
 Orbital Rotation angle TolX            ....  5.000e-05
 DIIS Error             TolErr          ....  1.000e-06

------------------------------
INITIAL GUESS: MODEL POTENTIAL
------------------------------
Loading Hartree-Fock densities                     ... done
Calculating cut-offs                               ... done
Initializing the effective Hamiltonian             ... done
Setting up the integral package (SHARK)            ... done
Starting the Coulomb interaction                   ... done (   0.6 sec)
Making the grid                                    ... done (   0.3 sec)
Mapping shells                                     ... done
Starting the XC term evaluation                    ... done (   0.7 sec)
  promolecular density results
     # of electrons  =    108.000863782
     EX              =    -88.993587864
     EC              =     -3.703033597
     EX+EC           =    -92.696621462
Transforming the Hamiltonian                       ... done (   0.0 sec)
Diagonalizing the Hamiltonian                      ... done (   0.0 sec)
Back transforming the eigenvectors                 ... done (   0.0 sec)
Now organizing SCF variables                       ... done
                      ------------------
                      INITIAL GUESS DONE (   1.6 sec)
                      ------------------
             **** ENERGY FILE WAS UPDATED (nmr.en.tmp) ****
Finished Guess after   1.7 sec
Maximum memory used throughout the entire GUESS-calculation: 36.5 MB

-------------------------------------------------------------------------------------------
                                      ORCA LEAN-SCF
                              memory conserving SCF solver
-------------------------------------------------------------------------------------------

----------------------------------------D-I-I-S--------------------------------------------
Iteration    Energy (Eh)           Delta-E    RMSDP     MaxDP     DIISErr   Damp  Time(sec)
-------------------------------------------------------------------------------------------
               ***  Starting incremental Fock matrix formation  ***
    1    -690.8497430510894901     0.00e+00  1.06e-02  1.52e+00  1.76e-01  0.700  19.8
    2    -691.0016574899570969    -1.52e-01  8.54e-03  1.18e+00  7.71e-02  0.700   7.1
                               ***Turning on AO-DIIS***
    3    -691.0613711858186434    -5.97e-02  2.64e-03  2.18e-01  2.91e-02  0.700   7.0
    4    -691.0973822806504359    -3.60e-02  6.60e-03  7.97e-01  1.42e-02  0.000   6.8
    5    -691.1767318397762665    -7.93e-02  3.06e-03  4.55e-01  3.58e-03  0.000   7.0
                              *** Initializing SOSCF ***
---------------------------------------S-O-S-C-F--------------------------------------
Iteration    Energy (Eh)           Delta-E    RMSDP     MaxDP     MaxGrad    Time(sec)
--------------------------------------------------------------------------------------
    6    -691.1770147532076862    -2.83e-04  1.15e-03  1.63e-01  1.22e-03     6.6
               *** Restarting incremental Fock matrix formation ***
    7    -691.1770964902373180    -8.17e-05  5.16e-04  4.59e-02  1.35e-04    15.8
    8    -691.1770946991678102     1.79e-06  9.72e-04  1.36e-01  2.07e-04    10.9
    9    -691.1771005052758028    -5.81e-06  3.47e-03  4.54e-01  2.08e-05    15.1
   10    -691.1771004546267250     5.06e-08  9.07e-04  1.19e-01  2.43e-05    17.5
                 **** Energy Check signals convergence ****

               *****************************************************
               *                     SUCCESS                       *
               *           SCF CONVERGED AFTER  10 CYCLES          *
               *****************************************************

Recomputing exchange energy using gridx3       ... done (   51.799 sec)
Old exchange energy                            :    -18.091490828 Eh
New exchange energy                            :    -18.091500171 Eh
Exchange energy change after final integration :     -0.000009342 Eh
Total energy after final integration           :   -691.177109797 Eh
             **** ENERGY FILE WAS UPDATED (nmr.en.tmp) ****

----------------
TOTAL SCF ENERGY
----------------

Total Energy       :       -691.17710979710591 Eh          -18807.88533 eV

Components:
Nuclear Repulsion  :       1082.08095890684058 Eh           29444.91984 eV
Electronic Energy  :      -1773.25805936146730 Eh          -48252.80492 eV
One Electron Energy:      -3091.77460551132663 Eh          -84131.46418 eV
Two Electron Energy:       1318.51654614985932 Eh           35878.65926 eV

Virial components:
Potential Energy   :      -1377.82478335004180 Eh          -37492.51844 eV
Kinetic Energy     :        686.64767355293588 Eh           18684.63311 eV
Virial Ratio       :          2.00659644883195

DFT components:
N(Alpha)           :       53.999885054134 electrons
N(Beta)            :       53.999885054134 electrons
N(Total)           :      107.999770108267 electrons
E(X)               :      -71.852963654866 Eh       
E(C)               :       -4.342872303414 Eh       
E(XC)              :      -76.195835958280 Eh       

---------------
SCF CONVERGENCE
---------------

  Last Energy change         ...   -5.0649e-08  Tolerance :   1.0000e-06
  Last MAX-Density change    ...    1.1875e-01  Tolerance :   1.0000e-05
  Last RMS-Density change    ...    9.0667e-04  Tolerance :   1.0000e-06
  Last DIIS Error            ...    1.2219e-03  Tolerance :   1.0000e-06
  Last Orbital Gradient      ...    2.4308e-05  Tolerance :   5.0000e-05
  Last Orbital Rotation      ...    1.8794e-05  Tolerance :   5.0000e-05


----------------
ORBITAL ENERGIES
----------------

  NO   OCC          E(Eh)            E(eV) 
   0   2.0000     -19.164590      -521.4950 
   1   2.0000     -19.164502      -521.4926 
   2   2.0000     -19.164472      -521.4918 
   3   2.0000     -19.161798      -521.4190 
   4   2.0000     -10.298296      -280.2309 
   5   2.0000     -10.294766      -280.1348 
   6   2.0000     -10.244893      -278.7777 
   7   2.0000     -10.243054      -278.7277 
   8   2.0000     -10.229260      -278.3523 
   9   2.0000     -10.228923      -278.3431 
  10   2.0000     -10.187931      -277.2277 
  11   2.0000     -10.182645      -277.0839 
  12   2.0000     -10.179607      -277.0012 
  13   2.0000     -10.176265      -276.9103 
  14   2.0000      -1.101980       -29.9864 
  15   2.0000      -1.060474       -28.8570 
  16   2.0000      -1.040866       -28.3234 
  17   2.0000      -1.006811       -27.3967 
  18   2.0000      -0.826433       -22.4884 
  19   2.0000      -0.771292       -20.9879 
  20   2.0000      -0.745780       -20.2937 
  21   2.0000      -0.738984       -20.1088 
  22   2.0000      -0.689312       -18.7571 
  23   2.0000      -0.669306       -18.2127 
  24   2.0000      -0.625222       -17.0131 
  25   2.0000      -0.621462       -16.9108 
  26   2.0000      -0.567769       -15.4498 
  27   2.0000      -0.546044       -14.8586 
  28   2.0000      -0.541173       -14.7261 
  29   2.0000      -0.513559       -13.9747 
  30   2.0000      -0.504872       -13.7383 
  31   2.0000      -0.479802       -13.0561 
  32   2.0000      -0.466489       -12.6938 
  33   2.0000      -0.463011       -12.5992 
  34   2.0000      -0.458897       -12.4872 
  35   2.0000      -0.449181       -12.2228 
  36   2.0000      -0.445207       -12.1147 
  37   2.0000      -0.421120       -11.4592 
  38   2.0000      -0.405532       -11.0351 
  39   2.0000      -0.401696       -10.9307 
  40   2.0000      -0.386751       -10.5240 
  41   2.0000      -0.379781       -10.3344 
  42   2.0000      -0.373348       -10.1593 
  43   2.0000      -0.358977        -9.7683 
  44   2.0000      -0.345444        -9.4000 
  45   2.0000      -0.342179        -9.3112 
  46   2.0000      -0.338787        -9.2189 
  47   2.0000      -0.334632        -9.1058 
  48   2.0000      -0.321341        -8.7441 
  49   2.0000      -0.312878        -8.5138 
  50   2.0000      -0.284590        -7.7441 
  51   2.0000      -0.278255        -7.5717 
  52   2.0000      -0.266880        -7.2622 
  53   2.0000      -0.243595        -6.6285 
  54   0.0000      -0.001076        -0.0293 
  55   0.0000       0.010102         0.2749 
  56   0.0000       0.014737         0.4010 
  57   0.0000       0.022997         0.6258 
  58   0.0000       0.029983         0.8159 
  59   0.0000       0.033539         0.9126 
  60   0.0000       0.038213         1.0398 
  61   0.0000       0.040963         1.1147 
  62   0.0000       0.044800         1.2191 
  63   0.0000       0.056437         1.5357 
  64   0.0000       0.063066         1.7161 
*Only the first 10 virtual orbitals were printed.

                    ********************************
                    * MULLIKEN POPULATION ANALYSIS *
                    ********************************

-----------------------
MULLIKEN ATOMIC CHARGES
-----------------------
   0 C :   -0.596531
   1 C :   -0.381030
   2 O :   -0.264339
   3 C :    0.097978
   4 C :    0.057062
   5 O :   -0.244074
   6 O :   -0.237935
   7 C :   -0.002348
   8 C :    0.015845
   9 O :   -0.240228
  10 C :   -0.056791
  11 C :   -0.237364
  12 C :   -0.304344
  13 C :    0.096003
  14 H :    0.134518
  15 H :    0.156982
  16 H :    0.128316
  17 H :    0.145487
  18 H :    0.133636
  19 H :    0.140782
  20 H :    0.132560
  21 H :    0.131221
  22 H :    0.158552
  23 H :    0.137479
  24 H :    0.131261
  25 H :    0.164612
  26 H :    0.130978
  27 H :    0.156133
  28 H :    0.162081
  29 H :    0.153497
Sum of atomic charges:   -0.0000000

--------------------------------
MULLIKEN REDUCED ORBITAL CHARGES
--------------------------------
  0 C s       :     3.817939  s :     3.817939
      pz      :     0.729401  p :     2.681107
      px      :     0.928872
      py      :     1.022834
      dz2     :     0.021646  d :     0.097486
      dxz     :     0.015650
      dyz     :     0.016466
      dx2y2   :     0.024696
      dxy     :     0.019027

  1 C s       :     3.830166  s :     3.830166
      pz      :     0.792271  p :     2.454220
      px      :     0.872320
      py      :     0.789629
      dz2     :     0.020490  d :     0.096645
      dxz     :     0.012394
      dyz     :     0.017235
      dx2y2   :     0.022064
      dxy     :     0.024462

  2 O s       :     3.744365  s :     3.744365
      pz      :     1.604728  p :     4.490961
      px      :     1.532444
      py      :     1.353789
      dz2     :     0.004408  d :     0.029013
      dxz     :     0.006364
      dyz     :     0.008060
      dx2y2   :     0.005949
      dxy     :     0.004232

  3 C s       :     3.106799  s :     3.106799
      pz      :     0.902186  p :     2.732239
      px      :     0.854855
      py      :     0.975197
      dz2     :     0.012664  d :     0.062984
      dxz     :     0.012170
      dyz     :     0.011864
      dx2y2   :     0.010622
      dxy     :     0.015664

  4 C s       :     3.164696  s :     3.164696
      pz      :     0.980194  p :     2.716098
      px      :     0.822968
      py      :     0.912936
      dz2     :     0.011635  d :     0.062144
      dxz     :     0.017035
      dyz     :     0.005958
      dx2y2   :     0.015045
      dxy     :     0.012471

  5 O s       :     3.738047  s :     3.738047
      pz      :     1.787489  p :     4.477451
      px      :     1.477572
      py      :     1.212390
      dz2     :     0.003921  d :     0.028577
      dxz     :     0.004666
      dyz     :     0.004574
      dx2y2   :     0.009001
      dxy     :     0.006414

  6 O s       :     3.713109  s :     3.713109
      pz      :     1.607718  p :     4.496726
      px      :     1.573037
      py      :     1.315971
      dz2     :     0.004760  d :     0.028101
      dxz     :     0.004896
      dyz     :     0.007580
      dx2y2   :     0.004529
      dxy     :     0.006335

  7 C s       :     3.185114  s :     3.185114
      pz      :     0.837264  p :     2.753312
      px      :     1.088059
      py      :     0.827988
      dz2     :     0.017070  d :     0.063922
      dxz     :     0.006298
      dyz     :     0.016057
      dx2y2   :     0.008087
      dxy     :     0.016410

  8 C s       :     3.171400  s :     3.171400
      pz      :     0.968380  p :     2.749767
      px      :     1.060622
      py      :     0.720765
      dz2     :     0.011540  d :     0.062988
      dxz     :     0.006045
      dyz     :     0.015878
      dx2y2   :     0.017320
      dxy     :     0.012205

  9 O s       :     3.714368  s :     3.714368
      pz      :     1.704209  p :     4.498540
      px      :     1.486161
      py      :     1.308170
      dz2     :     0.003913  d :     0.027320
      dxz     :     0.005592
      dyz     :     0.005387
      dx2y2   :     0.008455
      dxy     :     0.003972

 10 C s       :     3.110143  s :     3.110143
      pz      :     1.042179  p :     2.910700
      px      :     0.882888
      py      :     0.985632
      dz2     :     0.010678  d :     0.035948
      dxz     :     0.006308
      dyz     :     0.002541
      dx2y2   :     0.010583
      dxy     :     0.005838

 11 C s       :     3.265561  s :     3.265561
      pz      :     0.924199  p :     2.934385
      px      :     0.963188
      py      :     1.046998
      dz2     :     0.009496  d :     0.037418
      dxz     :     0.008645
      dyz     :     0.004942
      dx2y2   :     0.009332
      dxy     :     0.005003

 12 C s       :     3.322594  s :     3.322594
      pz      :     0.943005  p :     2.944576
      px      :     0.954609
      py      :     1.046962
      dz2     :     0.009396  d :     0.037174
      dxz     :     0.006758
      dyz     :     0.006682
      dx2y2   :     0.004898
      dxy     :     0.009440

 13 C s       :     2.970315  s :     2.970315
      pz      :     1.040937  p :     2.897949
      px      :     0.833281
      py      :     1.023731
      dz2     :     0.010864  d :     0.035733
      dxz     :     0.006306
      dyz     :     0.002442
      dx2y2   :     0.010206
      dxy     :     0.005915

 14 H s       :     0.854988  s :     0.854988
      pz      :     0.003166  p :     0.010494
      px      :     0.002179
      py      :     0.005149

 15 H s       :     0.832306  s :     0.832306
      pz      :     0.001980  p :     0.010711
      px      :     0.004984
      py      :     0.003747

 16 H s       :     0.861196  s :     0.861196
      pz      :     0.002254  p :     0.010488
      px      :     0.001675
      py      :     0.006558

 17 H s       :     0.843902  s :     0.843902
      pz      :     0.004291  p :     0.010611
      px      :     0.004266
      py      :     0.002055

 18 H s       :     0.855666  s :     0.855666
      pz      :     0.001912  p :     0.010698
      px      :     0.005532
      py      :     0.003254

 19 H s       :     0.848722  s :     0.848722
      pz      :     0.002155  p :     0.010496
      px      :     0.004733
      py      :     0.003608

 20 H s       :     0.856944  s :     0.856944
      pz      :     0.002448  p :     0.010496
      px      :     0.006705
      py      :     0.001343

 21 H s       :     0.858289  s :     0.858289
      pz      :     0.004018  p :     0.010490
      px      :     0.003251
      py      :     0.003220

 22 H s       :     0.830442  s :     0.830442
      pz      :     0.006684  p :     0.011006
      px      :     0.002010
      py      :     0.002312

 23 H s       :     0.851367  s :     0.851367
      pz      :     0.002379  p :     0.011154
      px      :     0.002322
      py      :     0.006452

 24 H s       :     0.857859  s :     0.857859
      pz      :     0.003209  p :     0.010880
      px      :     0.005194
      py      :     0.002477

 25 H s       :     0.824461  s :     0.824461
      pz      :     0.002172  p :     0.010926
      px      :     0.002316
      py      :     0.006438

 26 H s       :     0.858142  s :     0.858142
      pz      :     0.002274  p :     0.010880
      px      :     0.004573
      py      :     0.004033

 27 H s       :     0.832976  s :     0.832976
      pz      :     0.002949  p :     0.010891
      px      :     0.002475
      py      :     0.005467

 28 H s       :     0.826996  s :     0.826996
      pz      :     0.006612  p :     0.010923
      px      :     0.002034
      py      :     0.002277

 29 H s       :     0.835325  s :     0.835325
      pz      :     0.002420  p :     0.011178
      px      :     0.002248
      py      :     0.006510



                     *******************************
                     * LOEWDIN POPULATION ANALYSIS *
                     *******************************

----------------------
LOEWDIN ATOMIC CHARGES
----------------------
   0 C :    0.084142
   1 C :    0.091964
   2 O :   -0.366411
   3 C :   -0.044559
   4 C :   -0.039253
   5 O :   -0.370265
   6 O :   -0.376466
   7 C :   -0.062051
   8 C :   -0.053901
   9 O :   -0.393619
  10 C :   -0.214956
  11 C :   -0.254041
  12 C :   -0.254243
  13 C :   -0.224415
  14 H :    0.151527
  15 H :    0.163595
  16 H :    0.148934
  17 H :    0.155767
  18 H :    0.146056
  19 H :    0.155332
  20 H :    0.151701
  21 H :    0.146434
  22 H :    0.170434
  23 H :    0.160216
  24 H :    0.139453
  25 H :    0.164097
  26 H :    0.139688
  27 H :    0.153759
  28 H :    0.170974
  29 H :    0.160108

-------------------------------
LOEWDIN REDUCED ORBITAL CHARGES
-------------------------------
  0 C s       :     2.800825  s :     2.800825
      pz      :     1.013850  p :     2.898128
      px      :     0.981553
      py      :     0.902725
      dz2     :     0.049536  d :     0.216906
      dxz     :     0.034990
      dyz     :     0.033785
      dx2y2   :     0.056564
      dxy     :     0.042031

  1 C s       :     2.806591  s :     2.806591
      pz      :     1.025086  p :     2.886423
      px      :     0.989333
      py      :     0.872003
      dz2     :     0.047210  d :     0.215022
      dxz     :     0.026270
      dyz     :     0.038201
      dx2y2   :     0.048899
      dxy     :     0.054442

  2 O s       :     3.490712  s :     3.490712
      pz      :     1.684241  p :     4.809689
      px      :     1.641217
      py      :     1.484231
      dz2     :     0.008850  d :     0.066010
      dxz     :     0.012508
      dyz     :     0.017133
      dx2y2   :     0.014329
      dxy     :     0.013190

  3 C s       :     2.867385  s :     2.867385
      pz      :     1.019666  p :     3.043355
      px      :     0.968717
      py      :     1.054972
      dz2     :     0.028420  d :     0.133819
      dxz     :     0.027002
      dyz     :     0.025137
      dx2y2   :     0.021675
      dxy     :     0.031585

  4 C s       :     2.869614  s :     2.869614
      pz      :     1.057475  p :     3.037675
      px      :     0.945710
      py      :     1.034490
      dz2     :     0.025230  d :     0.131964
      dxz     :     0.037048
      dyz     :     0.011837
      dx2y2   :     0.032043
      dxy     :     0.025806

  5 O s       :     3.487447  s :     3.487447
      pz      :     1.816091  p :     4.817673
      px      :     1.613954
      py      :     1.387628
      dz2     :     0.008084  d :     0.065145
      dxz     :     0.008322
      dyz     :     0.010582
      dx2y2   :     0.022178
      dxy     :     0.015979

  6 O s       :     3.490182  s :     3.490182
      pz      :     1.688220  p :     4.820918
      px      :     1.673576
      py      :     1.459122
      dz2     :     0.010172  d :     0.065366
      dxz     :     0.008525
      dyz     :     0.017834
      dx2y2   :     0.011792
      dxy     :     0.017043

  7 C s       :     2.867121  s :     2.867121
      pz      :     0.991701  p :     3.058979
      px      :     1.120383
      py      :     0.946895
      dz2     :     0.039208  d :     0.135951
      dxz     :     0.011977
      dyz     :     0.035370
      dx2y2   :     0.015961
      dxy     :     0.033435

  8 C s       :     2.869807  s :     2.869807
      pz      :     1.062098  p :     3.050124
      px      :     1.109624
      py      :     0.878401
      dz2     :     0.026113  d :     0.133970
      dxz     :     0.011522
      dyz     :     0.034808
      dx2y2   :     0.037223
      dxy     :     0.024304

  9 O s       :     3.486238  s :     3.486238
      pz      :     1.749978  p :     4.843188
      px      :     1.616712
      py      :     1.476498
      dz2     :     0.008315  d :     0.064193
      dxz     :     0.011761
      dyz     :     0.011611
      dx2y2   :     0.019699
      dxy     :     0.012808

 10 C s       :     2.899679  s :     2.899679
      pz      :     1.106084  p :     3.238473
      px      :     1.044924
      py      :     1.087465
      dz2     :     0.020678  d :     0.076804
      dxz     :     0.014856
      dyz     :     0.005154
      dx2y2   :     0.022465
      dxy     :     0.013650

 11 C s       :     2.908894  s :     2.908894
      pz      :     1.076943  p :     3.265339
      px      :     1.079367
      py      :     1.109029
      dz2     :     0.022038  d :     0.079808
      dxz     :     0.018147
      dyz     :     0.010259
      dx2y2   :     0.018278
      dxy     :     0.011086

 12 C s       :     2.912069  s :     2.912069
      pz      :     1.083423  p :     3.263083
      px      :     1.068647
      py      :     1.111013
      dz2     :     0.021727  d :     0.079091
      dxz     :     0.015003
      dyz     :     0.013401
      dx2y2   :     0.009991
      dxy     :     0.018969

 13 C s       :     2.898419  s :     2.898419
      pz      :     1.110431  p :     3.249801
      px      :     1.053567
      py      :     1.085803
      dz2     :     0.020928  d :     0.076195
      dxz     :     0.014830
      dyz     :     0.004892
      dx2y2   :     0.021872
      dxy     :     0.013673

 14 H s       :     0.811703  s :     0.811703
      pz      :     0.011335  p :     0.036770
      px      :     0.006667
      py      :     0.018767

 15 H s       :     0.797567  s :     0.797567
      pz      :     0.005738  p :     0.038839
      px      :     0.019499
      py      :     0.013601

 16 H s       :     0.814377  s :     0.814377
      pz      :     0.006185  p :     0.036689
      px      :     0.005954
      py      :     0.024550

 17 H s       :     0.806122  s :     0.806122
      pz      :     0.016180  p :     0.038111
      px      :     0.016023
      py      :     0.005908

 18 H s       :     0.815049  s :     0.815049
      pz      :     0.005702  p :     0.038895
      px      :     0.021596
      py      :     0.011597

 19 H s       :     0.807853  s :     0.807853
      pz      :     0.007064  p :     0.036815
      px      :     0.017148
      py      :     0.012603

 20 H s       :     0.811568  s :     0.811568
      pz      :     0.006849  p :     0.036731
      px      :     0.025646
      py      :     0.004236

 21 H s       :     0.815678  s :     0.815678
      pz      :     0.014746  p :     0.037888
      px      :     0.011410
      py      :     0.011731

 22 H s       :     0.791424  s :     0.791424
      pz      :     0.025643  p :     0.038142
      px      :     0.006007
      py      :     0.006492

 23 H s       :     0.801167  s :     0.801167
      pz      :     0.007049  p :     0.038617
      px      :     0.007019
      py      :     0.024550

 24 H s       :     0.823022  s :     0.823022
      pz      :     0.010631  p :     0.037525
      px      :     0.019093
      py      :     0.007801

 25 H s       :     0.797459  s :     0.797459
      pz      :     0.006436  p :     0.038444
      px      :     0.006726
      py      :     0.025282

 26 H s       :     0.822848  s :     0.822848
      pz      :     0.006702  p :     0.037465
      px      :     0.016248
      py      :     0.014515

 27 H s       :     0.808432  s :     0.808432
      pz      :     0.009790  p :     0.037809
      px      :     0.007431
      py      :     0.020588

 28 H s       :     0.790882  s :     0.790882
      pz      :     0.025391  p :     0.038144
      px      :     0.006081
      py      :     0.006673

 29 H s       :     0.801242  s :     0.801242
      pz      :     0.007029  p :     0.038649
      px      :     0.006661
      py      :     0.024959



                      *****************************
                      * MAYER POPULATION ANALYSIS *
                      *****************************

  NA   - Mulliken gross atomic population
  ZA   - Total nuclear charge
  QA   - Mulliken gross atomic charge
  VA   - Mayer's total valence
  BVA  - Mayer's bonded valence
  FA   - Mayer's free valence

  ATOM       NA         ZA         QA         VA         BVA        FA
  0 C      6.5965     6.0000    -0.5965     4.9504     4.9504    -0.0000
  1 C      6.3810     6.0000    -0.3810     4.6213     4.6213     0.0000
  2 O      8.2643     8.0000    -0.2643     1.6918     1.6918    -0.0000
  3 C      5.9020     6.0000     0.0980     3.1708     3.1708     0.0000
  4 C      5.9429     6.0000     0.0571     3.2842     3.2842     0.0000
  5 O      8.2441     8.0000    -0.2441     1.7233     1.7233    -0.0000
  6 O      8.2379     8.0000    -0.2379     1.7650     1.7650    -0.0000
  7 C      6.0023     6.0000    -0.0023     3.4567     3.4567    -0.0000
  8 C      5.9842     6.0000     0.0158     3.4488     3.4488    -0.0000
  9 O      8.2402     8.0000    -0.2402     1.7061     1.7061    -0.0000
 10 C      6.0568     6.0000    -0.0568     3.3672     3.3672    -0.0000
 11 C      6.2374     6.0000    -0.2374     3.5341     3.5341     0.0000
 12 C      6.3043     6.0000    -0.3043     3.7012     3.7012     0.0000
 13 C      5.9040     6.0000     0.0960     3.1656     3.1656    -0.0000
 14 H      0.8655     1.0000     0.1345     0.9473     0.9473     0.0000
 15 H      0.8430     1.0000     0.1570     0.9393     0.9393     0.0000
 16 H      0.8717     1.0000     0.1283     0.9456     0.9456     0.0000
 17 H      0.8545     1.0000     0.1455     0.9409     0.9409     0.0000
 18 H      0.8664     1.0000     0.1336     0.9380     0.9380    -0.0000
 19 H      0.8592     1.0000     0.1408     0.9453     0.9453    -0.0000
 20 H      0.8674     1.0000     0.1326     0.9455     0.9455    -0.0000
 21 H      0.8688     1.0000     0.1312     0.9385     0.9385    -0.0000
 22 H      0.8414     1.0000     0.1586     0.9436     0.9436    -0.0000
 23 H      0.8625     1.0000     0.1375     0.9424     0.9424    -0.0000
 24 H      0.8687     1.0000     0.1313     0.9441     0.9441     0.0000
 25 H      0.8354     1.0000     0.1646     0.9392     0.9392    -0.0000
 26 H      0.8690     1.0000     0.1310     0.9429     0.9429     0.0000
 27 H      0.8439     1.0000     0.1561     0.9414     0.9414     0.0000
 28 H      0.8379     1.0000     0.1621     0.9401     0.9401    -0.0000
 29 H      0.8465     1.0000     0.1535     0.9371     0.9371    -0.0000

  Mayer bond orders larger than 0.100000
B(  0-C ,  1-C ) :   0.8360 B(  0-C ,  2-O ) :  -0.1993 B(  0-C ,  3-C ) :   0.1345 
B(  0-C ,  5-O ) :   1.3205 B(  0-C ,  6-O ) :  -0.4905 B(  0-C ,  7-C ) :   0.2473 
B(  0-C ,  8-C ) :   0.1174 B(  0-C ,  9-O ) :   1.6434 B(  0-C , 10-C ) :  -0.1311 
B(  0-C , 13-C ) :   1.1255 B(  0-C , 29-H ) :   0.2409 B(  1-C ,  2-O ) :   1.3602 
B(  1-C ,  3-C ) :  -0.1886 B(  1-C ,  6-O ) :   1.8943 B(  1-C ,  9-O ) :  -0.2372 
B(  1-C , 10-C ) :   1.1150 B(  2-O ,  3-C ) :   0.6989 B(  2-O , 10-C ) :  -0.1439 
B(  3-C ,  4-C ) :   0.7962 B(  3-C ,  6-O ) :  -0.1766 B(  3-C , 14-H ) :   0.9725 
B(  3-C , 15-H ) :   1.0441 B(  4-C ,  5-O ) :   0.6256 B(  4-C ,  9-O ) :  -0.1477 
B(  4-C , 16-H ) :   1.0082 B(  4-C , 17-H ) :   1.0049 B(  6-O ,  7-C ) :   0.6824 
B(  6-O , 10-C ) :  -0.2135 B(  7-C ,  8-C ) :   0.8599 B(  7-C , 13-C ) :  -0.1456 
B(  7-C , 18-H ) :   0.9649 B(  7-C , 19-H ) :   0.9978 B(  8-C ,  9-O ) :   0.6826 
B(  8-C , 13-C ) :  -0.1219 B(  8-C , 20-H ) :   0.9891 B(  8-C , 21-H ) :   0.9908 
B(  9-O , 13-C ) :  -0.1596 B( 10-C , 11-C ) :   0.9461 B( 10-C , 22-H ) :   1.0037 
B( 10-C , 23-H ) :   0.9210 B( 11-C , 12-C ) :   0.8922 B( 11-C , 24-H ) :   0.9673 
B( 11-C , 25-H ) :   0.9810 B( 12-C , 13-C ) :   0.9373 B( 12-C , 26-H ) :   0.9860 
B( 12-C , 27-H ) :   0.9928 B( 13-C , 28-H ) :   1.0347 B( 13-C , 29-H ) :   0.7665 


-------
TIMINGS
-------

Total SCF time: 0 days 0 hours 2 min 45 sec 

Total time                  ....     165.815 sec
Sum of individual times     ....     165.677 sec  ( 99.9%)

SCF preparation             ....       0.076 sec  (  0.0%)
Fock matrix formation       ....     165.032 sec  ( 99.5%)
  Startup                   ....       0.005 sec  (  0.0% of F)
  Split-RI-J                ....       9.291 sec  (  5.6% of F)
  Chain of spheres X        ....     137.798 sec  ( 83.5% of F)
  XC integration            ....      17.785 sec  ( 10.8% of F)
    XC Preparation          ....       0.000 sec  (  0.0% of XC)
    Basis function eval.    ....       6.297 sec  ( 35.4% of XC)
    Density eval.           ....       3.998 sec  ( 22.5% of XC)
    XC-Functional eval.     ....       0.352 sec  (  2.0% of XC)
    XC-Potential eval.      ....       6.593 sec  ( 37.1% of XC)
Diagonalization             ....       0.000 sec  (  0.0%)
Density matrix formation    ....       0.031 sec  (  0.0%)
Total Energy calculation    ....       0.054 sec  (  0.0%)
Population analysis         ....       0.098 sec  (  0.1%)
Orbital Transformation      ....       0.099 sec  (  0.1%)
Orbital Orthonormalization  ....       0.000 sec  (  0.0%)
DIIS solution               ....       0.090 sec  (  0.1%)
SOSCF solution              ....       0.196 sec  (  0.1%)
Finished LeanSCF after 166.2 sec

Maximum memory used throughout the entire LEANSCF-calculation: 52.9 MB

------------------------------------------------------------------------------
                         ORCA PROPERTY INTEGRAL CALCULATIONS
------------------------------------------------------------------------------

GBWName                                   ... nmr.gbw
Number of atoms                           ...     30
Number of basis functions                 ...    332
Max core memory                           ...   1024 MB

Dipole integrals                          ... YES
Quadrupole integrals                      ...  NO
Linear momentum integrals                 ...  NO
Angular momentum integrals                ...  NO
Higher moments length integrals           ...  NO
Higher moments velocity integrals         ...  NO
Kinetic energy integrals                  ...  NO
GIAO right hand sides                     ... YES
GIAO dipole derivative integrals          ...  NO
SOC integrals                             ...  NO
EPR diamagnetic integrals (GIAO)          ...  NO
EPR gauge integrals                       ...  NO
Field gradient integrals                  ...  NO (   0 nuclei)
Spin-dipole/Fermi contact integrals       ...  NO (   0 nuclei)
Contact density integrals                 ...  NO (   0 nuclei)
Nucleus-orbit integrals                   ...  NO (   0 nuclei)
Geometric perturbations                   ...  NO (  30 nuclei)

Choice of electric origin   ... Center of mass
Position of electric origin ... ( -0.3670,  0.2430, -0.0676) 
Choice of magnetic origin   ... GIAO
Position of magnetic origin ... (  0.0000,  0.0000,  0.0000) 

Calculating integrals                     ... Electric Dipole (Length)     done (  0.0 sec)

Calculating integrals                     ... GIAO Right Hand Sides
     -> RIJCOSX used in SCF. Same chosen for GIAO calculation.
  One-electron GIAO integrals (SHARK)     ... done (  0.1 sec)
  Calculating G(B)[P]                     ... (RI-J: SHARK-ok) (COSX-ok) (add-J+K:ok) => dG/dB done ( 47.0 sec)
  DFT XC-terms                            ... done ( 39.0 sec)
  Extracting occupied and virtual blocks  ... 
  Operator  0  NO=  54 NV= 278 
  Transforming and RHS contribution       ... done
  Adding eps_i * S(B)_ai terms            ... done
  Projecting overlap derivatives          ... done (  0.0 sec)
  Building G[dS/dB_ij] (COSX)             ... done (  4.0 sec)
  Transforming to MO basis                ... done
  Summing G[dS/dB_ij] into RHS contribs.  ... done
  GIAO Right hand sides done ( 90.2 sec)


Property integrals calculated in  90.5 sec

Maximum memory used throughout the entire PROPINT-calculation: 71.3 MB

-------------------------   --------------------
FINAL SINGLE POINT ENERGY      -691.177109797106
-------------------------   --------------------

------------------------------------------------------------------------------
                            ORCA SCF RESPONSE CALCULATION
------------------------------------------------------------------------------

GBWName                                 ... nmr.gbw
Number of atoms                         ...     30
Number of basis functions               ...    332
Max core memory                         ...   1024 MB

Electric field perturbation             ...  NO
Quadrupolar field perturbation          ...  NO
Magnetic field perturbation (no GIAO)   ...  NO
Magnetic field perturbation (with GIAO) ... YES
Linear momentum (velocity) perturbation ...  NO
Spin-orbit coupling perturbation        ...  NO
Choice of electric origin               ... Center of mass
Position of electric origin             ...    -0.366993     0.243027    -0.067575
Choice of magnetic origin               ... GIAO
Position of magnetic origin             ...     0.000000     0.000000     0.000000
Nuclear geometric perturbations         ...  NO (  90 perturbations)
Nucleus-orbit perturbations             ...  NO (   0 perturbations)
Spin-dipole/Fermi contact perturbations ...  NO (   0 perturbations)

Total number of real perturbations      ...      0
Total number of imaginary perturbations ...      3
Total number of triplet perturbations   ...      0
Total number of SOC perturbations       ...      0


                              ***************************
                              * IMAGINARY PERTURBATIONS *
                              ***************************



-------------------
SHARK CP-SCF DRIVER
-------------------

Dimension of the orbital basis          ...    332
Dimension of the CPSCF-problem          ...  15012
Number of operators                     ...      1
Max. number of iterations               ...    128
Convergence Tolerance                   ... 1.0e-03
Number of perturbations                 ...      3
Perturbation type                       ... IMAGINARY

----------------------------
POPLE LINEAR EQUATION SOLVER
----------------------------

  ITERATION   0:   ||err||_max =   7.3021e-01 (   3.8 sec   0/  3 done)
  ITERATION   1:   ||err||_max =   1.5352e-02 (   3.6 sec   0/  3 done)
  ITERATION   2:   ||err||_max =   1.0385e-03 (   3.8 sec   2/  3 done)
  ITERATION   3:   ||err||_max =   6.3769e-05 (   3.0 sec   3/  3 done)

CP-SCF equations solved in  14.3 sec
Response densities calculated in   0.0 sec

Maximum memory used throughout the entire SCFRESP-calculation: 56.0 MB

------------------------------------------------------------------------------
                              ORCA PROPERTY CALCULATIONS
------------------------------------------------------------------------------

GBWName                                 ... nmr.gbw
Number of atoms                         ...     30
Number of basis functions               ...    332
Max core memory                         ...   1024 MB

Electric properties:
Dipole moment                           ... YES
Quadrupole moment                       ...  NO
Static polarizability (Dipole/Dipole)   ...  NO
Static polarizability (Dipole/Quad.)    ...  NO
Static polarizability (Quad./Quad.)     ...  NO
Static polarizability (Velocity)        ...  NO

Atomic electric properties:
Dipole moment                           ...  NO
Quadrupole moment                       ...  NO
Static polarizability                   ...  NO

Choice of electric origin               ... Center of mass
Position of electric origin             ...    -0.366993     0.243027    -0.067575

General magnetic properties:
Magnetizability                         ...  NO

EPR properties:
g-Tensor (aka g-matrix)                 ...  NO
Zero-Field splitting spin-orbit         ...  NO
Zero-field splitting spin-spin          ...  NO
Hyperfine couplings                     ...  NO (   0 nuclei)
Quadrupole couplings                    ...  NO (   0 nuclei)
Contact density                         ...  NO (   0 nuclei)

NMR properties:
Chemical shifts                         ... YES (  30 nuclei)
Spin-rotation constants                 ...  NO (   0 nuclei)
Spin-spin couplings                     ...  NO (   0 nuclei,    0 pairs)

Choice of magnetic origin               ... GIAO
Position of magnetic origin             ...     0.000000     0.000000     0.000000

Properties with geometric perturbations:
SCF Hessian                             ...  NO
IR spectrum                             ...  NO
VCD spectrum                            ...  NO
X-ray spectroscopy properties:
SCF XES/XAS/RIXS spectra                ...  NO


-------------
DIPOLE MOMENT
-------------

Method             : SCF
Type of density    : Electron Density
Multiplicity       :   1
Irrep              :   0
Energy             :  -691.1771097971059135 Eh
Relativity type    : 
Basis              : AO
                                X                 Y                 Z
Electronic contribution:     -5.146925110       2.866351384      -0.763823121
Nuclear contribution   :      5.112928881      -3.566819447       1.040534231
                        -----------------------------------------
Total Dipole Moment    :     -0.033996229      -0.700468063       0.276711110
                        -----------------------------------------
Magnitude (a.u.)       :      0.753910001
Magnitude (Debye)      :      1.916286933



--------------------
Rotational spectrum 
--------------------
 
Rotational constants in cm-1:             0.029609             0.027205             0.023699 
Rotational constants in MHz :           887.648322           815.584680           710.483866 

Dipole components along the rotational axes: 
x,y,z [a.u.] :    -0.177262     0.710563     0.179049 
x,y,z [Debye]:    -0.450564     1.806108     0.455108 

 

Dipole moment calculation done in   0.0 sec 
GIAO: Analytic para- and diamagnetic shielding integrals (SHARK)       ... done (  1.5 sec)
-------------------
CHEMICAL SHIELDINGS (ppm)
-------------------

Method             : SCF
Type of density    : Electron Density
Type of derivative : Magnetic Field (with GIAOs) (Direction=X)
Multiplicity       :   1
Irrep              :   0
Relativity type    : 
Basis              : AO
 --------------
 Nucleus   0C :
 --------------

Diamagnetic contribution to the shielding tensor (ppm) : 
           259.400          4.347        14.141
            22.249        255.231       -10.149
            -7.465          4.746       266.297

Paramagnetic contribution to the shielding tensor (ppm): 
          -159.057         -8.130       -24.885
            -7.114       -152.285         7.637
            -5.411        -10.577      -189.727

Total shielding tensor (ppm): 
           100.343         -3.783       -10.745
            15.135        102.946        -2.512
           -12.876         -5.831        76.570


 Diagonalized sT*s matrix:
 
 sDSO           267.773          243.220          269.935  iso=     260.309
 sPSO          -196.140         -145.996         -158.933  iso=    -167.023
        ---------------  ---------------  ---------------
 Total           71.633           97.224          111.002  iso=      93.286

 Orientation: 
  X           0.3614084    0.5897670    0.7221903
  Y           0.0302215   -0.7815460    0.6231151
  Z           0.9319177   -0.2033734   -0.3002810

 --------------
 Nucleus   1C :
 --------------

Diamagnetic contribution to the shielding tensor (ppm) : 
           243.045          2.806        -7.665
            18.369        247.193        -5.185
             4.971         -0.900       257.914

Paramagnetic contribution to the shielding tensor (ppm): 
          -147.713         -1.812        14.056
            -7.496       -144.182         0.504
            -1.587         -1.579      -187.799

Total shielding tensor (ppm): 
            95.332          0.994         6.390
            10.873        103.011        -4.680
             3.384         -2.479        70.115


 Diagonalized sT*s matrix:
 
 sDSO           256.026          236.696          255.430  iso=     249.384
 sPSO          -187.454         -143.059         -149.181  iso=    -159.898
        ---------------  ---------------  ---------------
 Total           68.572           93.637          106.249  iso=      89.486

 Orientation: 
  X          -0.2102177   -0.8459727   -0.4900394
  Y           0.1490435    0.4676498   -0.8712575
  Z           0.9662270   -0.2561909    0.0277785

 --------------
 Nucleus   2O :
 --------------

Diamagnetic contribution to the shielding tensor (ppm) : 
           373.610        -17.905       -16.089
           -34.160        390.371       -17.145
            -3.071         -3.805       389.268

Paramagnetic contribution to the shielding tensor (ppm): 
          -131.473         29.018        47.055
            59.691       -120.563       -21.832
            19.930        -44.316      -128.945

Total shielding tensor (ppm): 
           242.137         11.113        30.966
            25.531        269.808       -38.977
            16.859        -48.122       260.323


 Diagonalized sT*s matrix:
 
 sDSO           400.470          351.898          400.881  iso=     384.416
 sPSO          -200.584          -88.466          -91.931  iso=    -126.994
        ---------------  ---------------  ---------------
 Total          199.886          263.432          308.950  iso=     257.423

 Orientation: 
  X           0.5802150    0.8141314   -0.0232517
  Y          -0.5377811    0.4043937    0.7397684
  Z          -0.6116715    0.4167204   -0.6724597

 --------------
 Nucleus   3C :
 --------------

Diamagnetic contribution to the shielding tensor (ppm) : 
           245.136         -7.688        13.186
            -3.620        228.726        14.523
            -5.726          4.527       231.005

Paramagnetic contribution to the shielding tensor (ppm): 
          -103.572         -6.246       -29.916
           -22.088       -103.585         0.127
           -12.041         12.087       -93.561

Total shielding tensor (ppm): 
           141.564        -13.934       -16.730
           -25.708        125.141        14.650
           -17.766         16.614       137.444


 Diagonalized sT*s matrix:
 
 sDSO           222.827          239.248          242.792  iso=     234.956
 sPSO          -111.733         -116.976          -72.009  iso=    -100.239
        ---------------  ---------------  ---------------
 Total          111.094          122.273          170.783  iso=     134.717

 Orientation: 
  X           0.4139369   -0.6101437   -0.6755597
  Y           0.8785037    0.0733084    0.4720774
  Z          -0.2385108   -0.7888920    0.5663585

 --------------
 Nucleus   4C :
 --------------

Diamagnetic contribution to the shielding tensor (ppm) : 
           233.226        -17.824         5.459
           -15.355        234.674        10.619
             5.234          4.936       224.369

Paramagnetic contribution to the shielding tensor (ppm): 
           -86.250         -9.155         8.943
            -7.319       -109.358       -14.944
            10.921         -8.213       -99.347

Total shielding tensor (ppm): 
           146.976        -26.979        14.401
           -22.674        125.317        -4.325
            16.155         -3.278       125.022


 Diagonalized sT*s matrix:
 
 sDSO           212.448          233.608          246.214  iso=     230.756
 sPSO          -105.314         -111.805          -77.834  iso=     -98.318
        ---------------  ---------------  ---------------
 Total          107.133          121.802          168.380  iso=     132.438

 Orientation: 
  X           0.5927908   -0.0603489    0.8030922
[...]
            -4.816          0.817        -1.844
             3.910          1.798        -3.546
            -0.728         -3.597         0.619

Total shielding tensor (ppm): 
            25.879         -0.437        -0.767
            -3.114         31.799        -0.510
            -0.126         -0.839        25.719


 Diagonalized sT*s matrix:
 
 sDSO            28.576           25.354           31.866  iso=      28.599
 sPSO            -3.668            0.805            0.464  iso=      -0.800
        ---------------  ---------------  ---------------
 Total           24.909           26.159           32.329  iso=      27.799

 Orientation: 
  X          -0.7336348    0.6183460   -0.2818301
  Y          -0.2667044    0.1194537    0.9563470
  Z          -0.6250190   -0.7767748   -0.0772802

 --------------
 Nucleus  19H :
 --------------

Diamagnetic contribution to the shielding tensor (ppm) : 
            29.226          6.329         2.315
             8.702         35.305         3.394
             3.316          1.852        23.360

Paramagnetic contribution to the shielding tensor (ppm): 
            -2.479         -2.458        -1.237
            -3.810         -4.866        -1.743
            -3.079         -1.468         2.559

Total shielding tensor (ppm): 
            26.747          3.871         1.077
             4.893         30.439         1.651
             0.237          0.383        25.919


 Diagonalized sT*s matrix:
 
 sDSO            24.166           22.588           41.137  iso=      29.297
 sPSO            -0.327            3.140           -7.599  iso=      -1.595
        ---------------  ---------------  ---------------
 Total           23.839           25.728           33.538  iso=      27.702

 Orientation: 
  X           0.8277957    0.0988052    0.5522606
  Y          -0.5610110    0.1377708    0.8162633
  Z           0.0045657   -0.9855236    0.1694769

 --------------
 Nucleus  20H :
 --------------

Diamagnetic contribution to the shielding tensor (ppm) : 
            33.650          3.759        -5.321
             6.580         27.114        -4.076
            -5.050         -0.798        23.416

Paramagnetic contribution to the shielding tensor (ppm): 
            -4.221         -0.219         2.857
            -0.895          0.278         3.790
             2.073          1.201         1.822

Total shielding tensor (ppm): 
            29.429          3.540        -2.464
             5.685         27.393        -0.286
            -2.977          0.402        25.238


 Diagonalized sT*s matrix:
 
 sDSO            22.718           23.189           38.274  iso=      28.060
 sPSO            -0.295            2.783           -4.609  iso=      -0.707
        ---------------  ---------------  ---------------
 Total           22.423           25.972           33.665  iso=      27.353

 Orientation: 
  X           0.5783520    0.1897596    0.7934105
  Y          -0.5614901   -0.6129522    0.5558944
  Z           0.5918090   -0.7669947   -0.2479539

 --------------
 Nucleus  21H :
 --------------

Diamagnetic contribution to the shielding tensor (ppm) : 
            20.154          2.917         0.617
            -5.315         33.743        -9.530
             2.663         -6.898        28.812

Paramagnetic contribution to the shielding tensor (ppm): 
             4.509         -1.353        -0.397
             5.507         -2.892         4.930
            -2.452          4.103        -1.003

Total shielding tensor (ppm): 
            24.663          1.564         0.220
             0.193         30.851        -4.600
             0.211         -2.795        27.809


 Diagonalized sT*s matrix:
 
 sDSO            20.411           22.774           39.525  iso=      27.570
 sPSO             3.810            2.960           -6.156  iso=       0.205
        ---------------  ---------------  ---------------
 Total           24.221           25.734           33.369  iso=      27.774

 Orientation: 
  X           0.8600596    0.5066581   -0.0599593
  Y          -0.3287426    0.4604647   -0.8245608
  Z          -0.3901612    0.7288826    0.5625872

 --------------
 Nucleus  22H :
 --------------

Diamagnetic contribution to the shielding tensor (ppm) : 
            27.214         -1.447        -1.425
             0.982         23.886        -0.450
            -1.540         -1.746        41.486

Paramagnetic contribution to the shielding tensor (ppm): 
             1.138          1.311         0.602
            -0.719          1.754         2.055
             1.355          2.548        -6.227

Total shielding tensor (ppm): 
            28.352         -0.135        -0.823
             0.263         25.640         1.604
            -0.185          0.802        35.258


 Diagonalized sT*s matrix:
 
 sDSO            24.395           27.054           41.136  iso=      30.862
 sPSO             1.092            1.269           -5.696  iso=      -1.112
        ---------------  ---------------  ---------------
 Total           25.487           28.323           35.440  iso=      29.750

 Orientation: 
  X          -0.0401568    0.9971561   -0.0637748
  Y           0.9922504    0.0473077    0.1148963
  Z          -0.1175865    0.0586667    0.9913282

 --------------
 Nucleus  23H :
 --------------

Diamagnetic contribution to the shielding tensor (ppm) : 
            26.897         -3.812        -0.698
            -2.744         30.606        -4.349
            -4.179          3.166        28.273

Paramagnetic contribution to the shielding tensor (ppm): 
             1.807          2.670        -0.700
             2.242          1.676         5.896
             2.642         -1.077        -1.844

Total shielding tensor (ppm): 
            28.704         -1.142        -1.399
            -0.503         32.283         1.547
            -1.537          2.089        26.429


 Diagonalized sT*s matrix:
 
 sDSO            27.264           26.717           31.795  iso=      28.592
 sPSO            -1.814            2.111            1.342  iso=       0.546
        ---------------  ---------------  ---------------
 Total           25.451           28.828           33.137  iso=      29.139

 Orientation: 
  X           0.3587611   -0.8945693    0.2665264
  Y          -0.1966433   -0.3515594   -0.9152800
  Z           0.9124812    0.2759562   -0.3020369

 --------------
 Nucleus  24H :
 --------------

Diamagnetic contribution to the shielding tensor (ppm) : 
            35.199         -3.572        -6.039
             2.184         20.909         0.515
            -6.704         -0.524        27.555

Paramagnetic contribution to the shielding tensor (ppm): 
            -0.859          2.851         2.334
            -2.512          3.604        -0.212
             2.453          1.055         2.878

Total shielding tensor (ppm): 
            34.340         -0.721        -3.706
            -0.327         24.513         0.303
            -4.251          0.532        30.433


 Diagonalized sT*s matrix:
 
 sDSO            20.917           23.953           38.794  iso=      27.888
 sPSO             3.559            4.004           -1.940  iso=       1.874
        ---------------  ---------------  ---------------
 Total           24.475           27.956           36.854  iso=      29.762

 Orientation: 
  X           0.0375707   -0.5265184   -0.8493331
  Y           0.9981099   -0.0215907    0.0575364
  Z          -0.0486317   -0.8498895    0.5247121

 --------------
 Nucleus  25H :
 --------------

Diamagnetic contribution to the shielding tensor (ppm) : 
            26.977         -0.088         0.786
            -0.669         29.724         0.493
            -0.548         -3.285        25.950

Paramagnetic contribution to the shielding tensor (ppm): 
             1.375          2.138        -1.227
             2.034          2.255        -2.816
             0.381          0.484         1.201

Total shielding tensor (ppm): 
            28.352          2.050        -0.441
             1.364         31.979        -2.323
            -0.168         -2.801        27.151


 Diagonalized sT*s matrix:
 
 sDSO            25.646           27.356           29.649  iso=      27.551
 sPSO             0.320            0.533            3.977  iso=       1.610
        ---------------  ---------------  ---------------
 Total           25.966           27.889           33.627  iso=      29.161

 Orientation: 
  X          -0.1953565   -0.9337092   -0.3000384
  Y           0.4260464    0.1947606   -0.8834890
  Z           0.8833574   -0.3004256    0.3597557

 --------------
 Nucleus  26H :
 --------------

Diamagnetic contribution to the shielding tensor (ppm) : 
            34.682         -6.704         2.980
            -1.947         23.921        -0.665
             3.514          0.619        26.838

Paramagnetic contribution to the shielding tensor (ppm): 
            -0.141          2.516        -2.017
            -1.668          2.901        -1.115
            -2.293         -3.186         0.950

Total shielding tensor (ppm): 
            34.541         -4.188         0.962
            -3.614         26.823        -1.780
             1.221         -2.567        27.788


 Diagonalized sT*s matrix:
 
 sDSO            24.152           24.402           36.888  iso=      28.481
 sPSO             0.236            3.796           -0.322  iso=       1.237
        ---------------  ---------------  ---------------
 Total           24.388           28.198           36.566  iso=      29.717

 Orientation: 
  X          -0.2817830    0.3613563   -0.8888307
  Y          -0.8431378    0.3488896    0.4091390
  Z          -0.4579488   -0.8646951   -0.2063620

 --------------
 Nucleus  27H :
 --------------

Diamagnetic contribution to the shielding tensor (ppm) : 
            29.241          6.326         1.457
             3.674         27.288         2.670
             3.248          7.723        27.222

Paramagnetic contribution to the shielding tensor (ppm): 
             0.478         -2.174         0.757
            -0.286          1.689        -0.023
            -0.960         -4.593         1.931

Total shielding tensor (ppm): 
            29.719          4.151         2.214
             3.388         28.977         2.647
             2.288          3.130        29.154


 Diagonalized sT*s matrix:
 
 sDSO            21.959           25.416           36.376  iso=      27.917
 sPSO             3.414            1.785           -1.100  iso=       1.366
        ---------------  ---------------  ---------------
 Total           25.373           27.201           35.275  iso=      29.283

 Orientation: 
  X           0.5456361    0.5732395    0.6112919
  Y          -0.7876866    0.1018193    0.6076041
  Z           0.2860613   -0.8130371    0.5070893

 --------------
 Nucleus  28H :
 --------------

Diamagnetic contribution to the shielding tensor (ppm) : 
            28.288          0.821         7.455
             1.463         22.372         1.269
             3.867          1.062        38.971

Paramagnetic contribution to the shielding tensor (ppm): 
             0.311         -0.572        -5.982
            -0.970          3.161        -2.217
            -3.156         -1.523        -4.450

Total shielding tensor (ppm): 
            28.599          0.250         1.473
             0.493         25.533        -0.948
             0.711         -0.461        34.521


 Diagonalized sT*s matrix:
 
 sDSO            22.359           27.002           40.270  iso=      29.877
 sPSO             3.052            1.482           -5.511  iso=      -0.326
        ---------------  ---------------  ---------------
 Total           25.411           28.484           34.759  iso=      29.551

 Orientation: 
  X          -0.1446172   -0.9758043    0.1639871
  Y           0.9854969   -0.1569116   -0.0646104
  Z           0.0887786    0.1522650    0.9843443

 --------------
 Nucleus  29H :
 --------------

Diamagnetic contribution to the shielding tensor (ppm) : 
            27.041         -2.322         4.539
            -0.963         29.046         5.074
             4.535         -0.949        23.924

Paramagnetic contribution to the shielding tensor (ppm): 
             2.594          1.900        -4.273
             1.082          2.808        -7.080
            -3.933         -1.757         1.826

Total shielding tensor (ppm): 
            29.635         -0.422         0.265
             0.119         31.854        -2.006
             0.602         -2.706        25.750


 Diagonalized sT*s matrix:
 
 sDSO            25.122           27.083           27.806  iso=      26.670
 sPSO            -0.203            2.553            4.878  iso=       2.409
        ---------------  ---------------  ---------------
 Total           24.919           29.636           32.684  iso=      29.080

 Orientation: 
  X          -0.0724201   -0.9932781    0.0902993
  Y           0.3137090   -0.1086270   -0.9432851
  Z           0.9467534   -0.0399851    0.3194671



--------------------------------
CHEMICAL SHIELDING SUMMARY (ppm)
--------------------------------


  Nucleus  Element    Isotropic     Anisotropy
  -------  -------  ------------   ------------
      0       C           93.286         26.573 
      1       C           89.486         25.144 
      2       O          257.423         77.291 
      3       C          134.717         54.099 
      4       C          132.438         53.912 
      5       O          262.691         84.570 
      6       O          271.638         74.039 
      7       C          132.956         55.333 
      8       C          129.902         54.999 
      9       O          279.734         68.696 
     10       C          158.749         19.222 
     11       C          168.680         13.575 
     12       C          167.672         14.055 
     13       C          158.020         24.962 
     14       H           27.799          9.015 
     15       H           26.974          7.060 
     16       H           27.586          9.605 
     17       H           27.345          8.592 
     18       H           27.799          6.796 
     19       H           27.702          8.755 
     20       H           27.353          9.468 
     21       H           27.774          8.391 
     22       H           29.750          8.535 
     23       H           29.139          5.998 
     24       H           29.762         10.639 
     25       H           29.161          6.699 
     26       H           29.717         10.274 
     27       H           29.283          8.988 
     28       H           29.551          7.812 
     29       H           29.080          5.406 


NMR shielding tensor and spin rotation calculation done in   1.5 sec 

Maximum memory used throughout the entire PROP-calculation: 28.5 MB

--------------------------------
SUGGESTED CITATIONS FOR THIS RUN
--------------------------------

Below you find a list of papers that are relevant to this ORCA run
We neither can nor want to force you to cite these papers, but we appreciate if you do
You receive ORCA, which is the product of decades of hard work by many enthusiastic individuals, for free
The only thing we kindly ask in return is that you cite our papers,
We deeply appreciate it, if you show your appreciation for ORCA by not just citing the generic ORCA reference.

Please note that relegating all ORCA citations to the supporting information does *not* help us.
SI sections are not indexed - citations you put there will not count into any citation statistics
But we need these citations in order to attract the funding resources that allow us to do what we are doing

Therefore, if you are a happy ORCA user, please consider citing a few of the papers listed below in the main body of your paper

In addition to the list printed below, the program has created the file nmr.bibtex that contains the list in bibtex format
You can import this file easily into all common literature databanks and citation aid programs


List of essential papers. We consider these as the minimum necessary citations

  1. Neese,F.
     Software update: the ORCA program system, version 5.0
     WIRES Comput. Molec. Sci., 2022 12(1)e1606
     doi.org/10.1002/wcms.1606

List of papers to cite with high priority. The work reported in these papers was absolutely
necessary for this run to complete.
Our perspective: the developers of density functionals and basis sets usually get cited in chemistry papers
Good! But without the algorithms to do something with them, the functionals or basis sets would not do anything.
Hence, in our opinion, the algorithm design and method developments papers are equally worthy of getting cited

  1. Neese,F.
     An improvement of the resolution of the identity approximation for the formation of the Coulomb matrix
     J. Comp. Chem., 2003 24(14)1740-1747
     doi.org/10.1002/jcc.10318
  2. Neese,F.; Wennmohs,F.; Hansen,A.; Becker,U.
     Efficient, approximate and parallel Hartree-Fock and hybrid DFT calculations. A 'chain-of-spheres' algorithm for the Hartree-Fock exchange
     Chem. Phys., 2009 356(1-3)98-109
     doi.org/10.1016/j.chemphys.2008.10.036
  3. Stoychev,G.L.; Auer,A.A.; Izsak,R.; Neese,F.
     Self-Consistent Field Calculation of Nuclear Magnetic Resonance Chemical Shielding Constants Using Gauge-Including Atomic Orbitals and Approximate Two-Electron Integrals
     J. Chem. Theory Comput., 2018 14(2)619-637
     doi.org/10.1021/acs.jctc.7b01006
  4. Helmich-Paris,B.; de Souza,B.; Neese,F.; Izsák,R.
     An improved chain of spheres for exchange algorithm
     J. Chem. Phys., 2021 155 104109
     doi.org/doi: 10.1063/5.0058766.
  5. Neese,F.
     The SHARK Integral Generation and Digestion System
     J. Comp. Chem., 2022  1-16
     doi.org/10.1002/jcc.26942

List of suggested additional citations. These are papers that are important in the 'surrounding' of 
of this run, or papers that preceded the highly important papers. If you like your results we are grateful for a citation.

  1. Izsak,R.; Neese,F.
     An overlap fitted chain of spheres exchange method
     J. Chem. Phys., 2011 135 144105
     doi.org/10.1063/1.3646921
  2. Izsak,R.; Hansen,A.; Neese,F.
     The resolution of identity and chain of spheres approximations for the LPNO-CCSD singles Fock term
     Molec. Phys., 2012 110 2413-2417
     doi.org/10.1080/00268976.2012.687466
  3. Neese,F.
     The ORCA program system
     WIRES Comput. Molec. Sci., 2012 2(1)73-78
     doi.org/10.1002/wcms.81
  4. Izsak,R.; Neese,F.; Klopper,W.
     Robust fitting techniques in the chain of spheres approximation to the Fock exchange: The role of the complementary space
     J. Chem. Phys., 2013 139 
     doi.org/10.1063/1.4819264
  5. Neese,F.
     Software update: the ORCA program system, version 4.0
     WIRES Comput. Molec. Sci., 2018 8(1)1-6
     doi.org/10.1002/wcms.1327
  6. Neese,F.; Wennmohs,F.; Becker,U.; Riplinger,C.
     The ORCA quantum chemistry program package
     J. Chem. Phys., 2020 152 Art. No. L224108
     doi.org/10.1063/5.0004608

List of optional additional citations

  1. Neese,F.
     Approximate second-order SCF convergence for spin unrestricted wavefunctions
     Chem. Phys. Lett., 2000 325(1-3)93-98
     doi.org/10.1016/s0009-2614(00)00662-x

Timings for individual modules:

Sum of individual times          ...      278.652 sec (=   4.644 min)
Startup calculation              ...        2.650 sec (=   0.044 min)   1.0 %
SCF iterations                   ...      168.139 sec (=   2.802 min)  60.3 %
Property integrals               ...       91.487 sec (=   1.525 min)  32.8 %
SCF Response                     ...       14.740 sec (=   0.246 min)   5.3 %
Property calculations            ...        1.635 sec (=   0.027 min)   0.6 %
                             ****ORCA TERMINATED NORMALLY****
TOTAL RUN TIME: 0 days 0 hours 4 minutes 38 seconds 804 msec
