
                                 *****************
                                 * O   R   C   A *
                                 *****************

                                            #,                                       
                                            ###                                      
                                            ####                                     
                                            #####                                    
                                            ######                                   
                                           ########,                                 
                                     ,,################,,,,,                         
                               ,,#################################,,                 
                          ,,##########################################,,             
                       ,#########################################, ''#####,          
                    ,#############################################,,   '####,        
                  ,##################################################,,,,####,       
                ,###########''''           ''''###############################       
              ,#####''   ,,,,##########,,,,          '''####'''          '####       
            ,##' ,,,,###########################,,,                        '##       
           ' ,,###''''                  '''############,,,                           
         ,,##''                                '''############,,,,        ,,,,,,###''
      ,#''                                            '''#######################'''  
     '                                                          ''''####''''         
             ,#######,   #######,   ,#######,      ##                                
            ,#'     '#,  ##    ##  ,#'     '#,    #''#        ,####,   ,####,        
            ##       ##  ##   ,#'  ##            #'  '#       #'       #'  '#        
            ##       ##  #######   ##           ,######,      #####,   #    #        
            '#,     ,#'  ##    ##  '#,     ,#' ,#      #,     #,   #   #,  ,#        
             '#######'   ##     ##  '#######'  #'      '#     '####' # '####'        



                #########################################################
                #                        -***-                          #
                #          Department of theory and spectroscopy        #
                #                                                       #
                #                      Frank Neese                      #
                #                                                       #
                #     Directorship, Architecture, Infrastructure        #
                #                    SHARK, DRIVERS                     #
                #        Core code/Algorithms in most modules           #
                #                                                       #
                #        Max Planck Institute fuer Kohlenforschung      #
                #                Kaiser Wilhelm Platz 1                 #
                #                 D-45470 Muelheim/Ruhr                 #
                #                      Germany                          #
                #                                                       #
                #                  All rights reserved                  #
                #                        -***-                          #
                #########################################################


                         Program Version 6.0.0  -   RELEASE  -


 With contributions from (in alphabetic order):
   Daniel Aravena         : Magnetic Suceptibility
   Michael Atanasov       : Ab Initio Ligand Field Theory (pilot matlab implementation)
   Alexander A. Auer      : GIAO ZORA, VPT2 properties, NMR spectrum
   Ute Becker             : All parallelization in ORCA, NUMFREQ, NUMCALC
   Giovanni Bistoni       : ED, misc. LED, open-shell LED, HFLD
   Martin Brehm           : Molecular dynamics
   Dmytro Bykov           : pre 5.0 version of the SCF Hessian
   Marcos Casanova-Páez   : Triplet and SCS-CIS(D). UHF-(DLPNO)-IP/EA/STEOM-CCSD. UHF-CVS-IP/STEOM-CCSD
   Vijay G. Chilkuri      : MRCI spin determinant printing, contributions to CSF-ICE
   Pauline Colinet        : FMM embedding
   Dipayan Datta          : RHF DLPNO-CCSD density
   Achintya Kumar Dutta   : EOM-CC, STEOM-CC
   Nicolas Foglia         : Exact transition moments, OPA infrastructure, MCD improvements
   Dmitry Ganyushin       : Spin-Orbit,Spin-Spin,Magnetic field MRCI
   Miquel Garcia          : C-PCM and meta-GGA Hessian, CCSD/C-PCM, Gaussian charge scheme
   Tiago L. C. Gouveia    : GS-ROHF, GS-ROCIS
   Yang Guo               : DLPNO-NEVPT2, F12-NEVPT2, CIM, IAO-localization
   Andreas Hansen         : Spin unrestricted coupled pair/coupled cluster methods
   Ingolf Harden          : AUTO-CI MPn and infrastructure 
   Benjamin Helmich-Paris : MC-RPA, TRAH-(SCF,CASSCF), AVAS, COSX integrals, SCF dyn. polar.
   Lee Huntington         : MR-EOM, pCC
   Robert Izsak           : Overlap fitted RIJCOSX, COSX-SCS-MP3, EOM
   Riya Kayal             : Wick's Theorem for AUTO-CI, AUTO-CI UHF-CCSDT
   Emily Kempfer          : AUTO-CI, RHF CISDT and CCSDT
   Christian Kollmar      : KDIIS, OOCD, Brueckner-CCSD(T), CCSD density, CASPT2, CASPT2-K, improved NEVPT2
   Axel Koslowski         : Symmetry handling
   Simone Kossmann        : Meta GGA functionals, TD-DFT gradient, OOMP2, (MP2 Hessian; deprecated post 5.0)
   Lucas Lang             : DCDCAS
   Marvin Lechner         : AUTO-CI (C++ implementation), FIC-MRCC
   Spencer Leger          : CASSCF response
   Dagmar Lenk            : GEPOL surface, SMD, ORCA-2-JSON
   Dimitrios Liakos       : Extrapolation schemes; Compound Job, initial MDCI parallelization
   Dimitrios Manganas     : Further ROCIS development; embedding schemes. LFT, Crystal Embedding
   Dimitrios Pantazis     : SARC Basis sets
   Anastasios Papadopoulos: AUTO-CI, single reference methods and gradients
   Taras Petrenko         : pre 6.0 DFT Hessian and TD-DFT gradient, (ASA, deprecated), ECA, 1-Electron XAS/XES, NRVS
   Peter Pinski           : DLPNO-MP2, DLPNO-MP2 Gradient
   Christoph Reimann      : Effective Core Potentials
   Marius Retegan         : Local ZFS, SOC
   Christoph Riplinger    : Optimizer, TS searches, QM/MM, DLPNO-CCSD(T), (RO)-DLPNO pert. Triples
   Michael Roemelt        : Original ROCIS implementation
   Masaaki Saitow         : Open-shell DLPNO-CCSD energy and density
   Barbara Sandhoefer     : DKH picture change effects
   Kantharuban Sivalingam : CASSCF convergence/infrastructure, NEVPT2 and variants, FIC-MRCI
   Bernardo de Souza      : ESD, SOC TD-DFT
   Georgi Stoychev        : AutoAux, RI-MP2 NMR, DLPNO-MP2 response, X2C
   Van Anh Tran           : RI-MP2 g-tensors
   Willem Van den Heuvel  : Paramagnetic NMR
   Zikuan Wang            : NOTCH, Electric field optimization 
   Frank Wennmohs         : Technical directorship and infrastructure
   Hang Xu                : AUTO-CI-Response properties 


 We gratefully acknowledge several colleagues who have allowed us to
 interface, adapt or use parts of their codes:
   Stefan Grimme, W. Hujo, H. Kruse, P. Pracht,  : VdW corrections, initial TS optimization,
                  C. Bannwarth, S. Ehlert,         DFT functionals, gCP, sTDA/sTD-DF
                  L. Wittmann, M. Mueller
   Ed Valeev, F. Pavosevic, A. Kumar             : LibInt (2-el integral package), F12 methods
   Garnet Chan, S. Sharma, J. Yang, R. Olivares  : DMRG
   Ulf Ekstrom                                   : XCFun DFT Library
   Mihaly Kallay                                 : mrcc  (arbitrary order and MRCC methods)
   Frank Weinhold                                : gennbo (NPA and NBO analysis)
   Simon Mueller                                 : openCOSMO-RS
   Christopher J. Cramer and Donald G. Truhlar   : smd solvation model
   Lars Goerigk                                  : TD-DFT with DH, B97 family of functionals
   V. Asgeirsson, H. Jonsson                     : NEB implementation
   FAccTs GmbH                                   : IRC, NEB, NEB-TS, DLPNO-Multilevel, CI-OPT
                                                   MM, QMMM, 2- and 3-layer-ONIOM, Crystal-QMMM,
                                                   LR-CPCM, SF, NACMEs, symmetry and pop. for TD-DFT,
                                                   nearIR, NL-DFT gradient (VV10), updates on ESD,
                                                   ML-optimized integration grids, MBIS, APM,
                                                   GOAT, DOCKER, SOLVATOR, interface openCOSMO-RS
   S Lehtola, MJT Oliveira, MAL Marques          : LibXC Library
   Liviu Ungur et al                             : ANISO software


 Your calculation uses the libint2 library for the computation of 2-el integrals
 For citations please refer to: http://libint.valeyev.net

 Your ORCA version has been built with support for libXC version: 6.2.2
 For citations please refer to: https://libxc.gitlab.io

 This ORCA versions uses:
   CBLAS   interface :  Fast vector & matrix operations
   LAPACKE interface :  Fast linear algebra routines
   SCALAPACK package :  Parallel linear algebra routines
   Shared memory     :  Shared parallel matrices




***************************************
The coordinates will be read from file: Mol_C12_OCCO2_C2_OCCO2_CCCC1_UFF.xyz
***************************************



Information: The global flag for NMR shieldings has been found
             ==>> will calculate the shieldings for all atoms in the system

================================================================================

----- Orbital basis set information -----
Your calculation utilizes the basis: 6-31+G(d,p)
   H-He, Li-Ne : W. J. Hehre, R. Ditchfield and J.A. Pople, J. Chem. Phys. 56, 2257 (1972).
                 Note: He and Ne are unpublished basis sets taken from the Gaussian program.
                 Note: Li and B from J. D. Dill and J. A. Pople, J. Chem. Phys. 62, 2921 (1975).
   Na - Ar     : M. M. Francl, W. J. Pietro, W. J. Hehre, J. S. Binkley, M. S. Gordon, 
                 D. J. DeFrees and J. A. Pople, J. Chem. Phys. 77, 3654 (1982).
   K - Zn      : V. A. Rassolov, J. A. Pople, M. A. Ratner, and T. L. Windus, J. Chem. Phys. 109, 1223 (1998).
   Additional Pol./Diff. from the 6-311G equivalent.

----- AuxJ basis set information -----
Your calculation utilizes the auxiliary basis: def2/J
   F. Weigend, Phys. Chem. Chem. Phys. 8, 1057 (2006).

================================================================================
                                        WARNINGS
                       Please study these warnings very carefully!
================================================================================


================================================================================
                                       INPUT FILE
================================================================================
NAME = nmr.com
|  1> ! B3LYP 6-31+G(d,p) def2/J RIJCOSX NMR
|  2> 
|  3> * xyzfile 0 1 Mol_C12_OCCO2_C2_OCCO2_CCCC1_UFF.xyz
|  4> 
|  5> 
|  6>                          ****END OF INPUT****
================================================================================

                       ****************************
                       * Single Point Calculation *
                       ****************************

---------------------------------
CARTESIAN COORDINATES (ANGSTROEM)
---------------------------------
  C     -0.559429   -0.489063   -0.283084
  O     -1.098756   -0.826454    0.982671
  C     -2.444426   -0.473745    0.941782
  C     -2.615999    0.394173   -0.263428
  O     -1.549592    0.097781   -1.104635
  C      0.634801    0.513816   -0.101416
  O      0.754526    1.306101   -1.268331
  C      0.456873    2.611294   -0.888533
  C      0.520644    2.641540    0.604965
  O      0.377692    1.324829    1.029194
  C      1.993899   -0.211999    0.111735
  C      1.829984   -1.588645    0.760540
  C      0.979197   -2.527025   -0.116340
  C     -0.075277   -1.783625   -0.962682
  H     -3.060510   -1.394643    0.850696
  H     -2.723918    0.070953    1.868663
  H     -2.575187    1.469338    0.018106
  H     -3.577611    0.180358   -0.776567
  H     -0.564460    2.872045   -1.242002
  H      1.192982    3.314211   -1.333448
  H      1.503738    3.032214    0.947262
  H     -0.294859    3.267149    1.026324
  H      2.506925   -0.351348   -0.866266
  H      2.666120    0.413116    0.739362
  H      2.830765   -2.043497    0.924808
  H      1.353327   -1.466708    1.757709
  H      1.644864   -3.098205   -0.799641
  H      0.471297   -3.264755    0.542459
  H      0.362125   -1.530398   -1.954043
  H     -0.939735   -2.458807   -1.145860

----------------------------
CARTESIAN COORDINATES (A.U.)
----------------------------
  NO LB      ZA    FRAG     MASS         X           Y           Z
   0 C     6.0000    0    12.011   -1.057168   -0.924195   -0.534951
   1 O     8.0000    0    15.999   -2.076348   -1.561772    1.856979
   2 C     6.0000    0    12.011   -4.619296   -0.895248    1.779710
   3 C     6.0000    0    12.011   -4.943522    0.744879   -0.497807
   4 O     8.0000    0    15.999   -2.928304    0.184779   -2.087458
   5 C     6.0000    0    12.011    1.199600    0.970972   -0.191648
   6 O     8.0000    0    15.999    1.425848    2.468173   -2.396798
   7 C     6.0000    0    12.011    0.863365    4.934631   -1.679084
   8 C     6.0000    0    12.011    0.983875    4.991787    1.143218
   9 O     8.0000    0    15.999    0.713734    2.503564    1.944895
  10 C     6.0000    0    12.011    3.767923   -0.400620    0.211149
  11 C     6.0000    0    12.011    3.458169   -3.002104    1.437212
  12 C     6.0000    0    12.011    1.850414   -4.775385   -0.219851
  13 C     6.0000    0    12.011   -0.142253   -3.370563   -1.819205
  14 H     1.0000    0     1.008   -5.783526   -2.635493    1.607582
  15 H     1.0000    0     1.008   -5.147459    0.134082    3.531261
  16 H     1.0000    0     1.008   -4.866398    2.776646    0.034215
  17 H     1.0000    0     1.008   -6.760705    0.340827   -1.467499
  18 H     1.0000    0     1.008   -1.066675    5.427378   -2.347044
  19 H     1.0000    0     1.008    2.254409    6.262951   -2.519852
  20 H     1.0000    0     1.008    2.841653    5.730054    1.790066
  21 H     1.0000    0     1.008   -0.557203    6.174017    1.939471
  22 H     1.0000    0     1.008    4.737402   -0.663951   -1.637005
  23 H     1.0000    0     1.008    5.038237    0.780676    1.397192
  24 H     1.0000    0     1.008    5.349371   -3.861650    1.747634
  25 H     1.0000    0     1.008    2.557417   -2.771676    3.321589
  26 H     1.0000    0     1.008    3.108342   -5.854759   -1.511102
  27 H     1.0000    0     1.008    0.890622   -6.169493    1.025099
  28 H     1.0000    0     1.008    0.684317   -2.892033   -3.692606
  29 H     1.0000    0     1.008   -1.775842   -4.646472   -2.165362

--------------------------------
INTERNAL COORDINATES (ANGSTROEM)
--------------------------------
 C      0   0   0     0.000000000000     0.00000000     0.00000000
 O      1   0   0     1.416630516343     0.00000000     0.00000000
 C      2   1   0     1.391726732481   106.34990139     0.00000000
 C      3   2   1     1.495075280096   106.36569755   346.21225169
 O      4   3   2     1.390216286828   106.02048532    21.89294886
 C      1   2   3     1.570017466070   109.77527557   122.24321332
 O      6   1   2     1.415535310077   109.05471786   207.12835082
 C      7   6   1     1.391536056472   106.37298752   114.49357697
 C      8   7   6     1.495164819330   106.40832506    15.20741562
 O      9   8   7     1.390731237970   106.32966124   339.48802294
 C      6   1   2     1.555438245843   112.48364147    88.00256503
 C     11   6   1     1.530676407529   112.59345711   332.08591458
 C     12  11   6     1.540556418366   111.45053649    60.98359727
 C      1   2   3     1.540177708108   108.28503177   242.85567352
 H      3   2   1     1.111714568069   109.16619146   105.52766950
 H      3   2   1     1.110819552146   110.06217496   225.83518005
 H      4   3   2     1.112163112913   110.66680392   263.43505167
 H      4   3   2     1.110732247704   111.10118808   141.48911419
 H      8   7   6     1.111778986513   109.25111441   255.76589292
 H      8   7   6     1.110809671364   110.02714464   135.58451376
 H      9   8   7     1.111875543090   110.62999050    97.99929337
 H      9   8   7     1.110844350380   111.03709903   219.84757234
 H     11   6   1     1.113148586882   109.92068167    92.54949449
 H     11   6   1     1.112009661467   110.07391573   209.81917247
 H     12  11   6     1.111502104222   109.52796691   182.17843907
 H     12  11   6     1.111942688352   109.11077750   299.42804951
 H     13  12  11     1.111872026759   109.39491856    91.04271209
 H     13  12  11     1.111856144158   108.61270699   207.82166321
 H     14   1   2     1.112762802871   108.98946990   180.66469617
 H     14   1   2     1.112075782747   109.79413036    63.43003848

---------------------------
INTERNAL COORDINATES (A.U.)
---------------------------
 C      0   0   0     0.000000000000     0.00000000     0.00000000
 O      1   0   0     2.677043708844     0.00000000     0.00000000
 C      2   1   0     2.629982377646   106.34990139     0.00000000
 C      3   2   1     2.825282828976   106.36569755   346.21225169
 O      4   3   2     2.627128049022   106.02048532    21.89294886
 C      1   2   3     2.966903036345   109.77527557   122.24321332
 O      6   1   2     2.674974068941   109.05471786   207.12835082
 C      7   6   1     2.629622052209   106.37298752   114.49357697
 C      8   7   6     2.825452033607   106.40832506    15.20741562
 O      9   8   7     2.628101165653   106.32966124   339.48802294
 C      6   1   2     2.939352302869   112.48364147    88.00256503
 C     11   6   1     2.892559209884   112.59345711   332.08591458
 C     12  11   6     2.911229724567   111.45053649    60.98359727
 C      1   2   3     2.910514065894   108.28503177   242.85567352
 H      3   2   1     2.100836072740   109.16619146   105.52766950
 H      3   2   1     2.099144737760   110.06217496   225.83518005
 H      4   3   2     2.101683699655   110.66680392   263.43505167
 H      4   3   2     2.098979756276   111.10118808   141.48911419
 H      8   7   6     2.100957805957   109.25111441   255.76589292
 H      8   7   6     2.099126065788   110.02714464   135.58451376
 H      9   8   7     2.101140271444   110.62999050    97.99929337
 H      9   8   7     2.099191599632   111.03709903   219.84757234
 H     11   6   1     2.103545975569   109.92068167    92.54949449
 H     11   6   1     2.101393718446   110.07391573   209.81917247
 H     12  11   6     2.100434574256   109.52796691   182.17843907
 H     12  11   6     2.101267157601   109.11077750   299.42804951
 H     13  12  11     2.101133626543   109.39491856    91.04271209
 H     13  12  11     2.101103612776   108.61270699   207.82166321
 H     14   1   2     2.102816949441   108.98946990   180.66469617
 H     14   1   2     2.101518669558   109.79413036    63.43003848

---------------------
BASIS SET INFORMATION
---------------------
There are 3 groups of distinct atoms

 Group   1 Type C   : 11s5p1d contracted to 4s3p1d pattern {6311/311/1}
 Group   2 Type O   : 11s5p1d contracted to 4s3p1d pattern {6311/311/1}
 Group   3 Type H   : 4s1p contracted to 2s1p pattern {31/1}

Atom   0C    basis set group =>   1
Atom   1O    basis set group =>   2
Atom   2C    basis set group =>   1
Atom   3C    basis set group =>   1
Atom   4O    basis set group =>   2
Atom   5C    basis set group =>   1
Atom   6O    basis set group =>   2
Atom   7C    basis set group =>   1
Atom   8C    basis set group =>   1
Atom   9O    basis set group =>   2
Atom  10C    basis set group =>   1
Atom  11C    basis set group =>   1
Atom  12C    basis set group =>   1
Atom  13C    basis set group =>   1
Atom  14H    basis set group =>   3
Atom  15H    basis set group =>   3
Atom  16H    basis set group =>   3
Atom  17H    basis set group =>   3
Atom  18H    basis set group =>   3
Atom  19H    basis set group =>   3
Atom  20H    basis set group =>   3
Atom  21H    basis set group =>   3
Atom  22H    basis set group =>   3
Atom  23H    basis set group =>   3
Atom  24H    basis set group =>   3
Atom  25H    basis set group =>   3
Atom  26H    basis set group =>   3
Atom  27H    basis set group =>   3
Atom  28H    basis set group =>   3
Atom  29H    basis set group =>   3
---------------------------------
AUXILIARY/J BASIS SET INFORMATION
---------------------------------
There are 3 groups of distinct atoms

 Group   1 Type C   : 12s5p4d2f1g contracted to 6s4p3d1f1g pattern {711111/2111/211/2/1}
 Group   2 Type O   : 12s5p4d2f1g contracted to 6s4p3d1f1g pattern {711111/2111/211/2/1}
 Group   3 Type H   : 5s2p1d contracted to 3s1p1d pattern {311/2/1}

Atom   0C    basis set group =>   1
Atom   1O    basis set group =>   2
Atom   2C    basis set group =>   1
Atom   3C    basis set group =>   1
Atom   4O    basis set group =>   2
Atom   5C    basis set group =>   1
Atom   6O    basis set group =>   2
Atom   7C    basis set group =>   1
Atom   8C    basis set group =>   1
Atom   9O    basis set group =>   2
Atom  10C    basis set group =>   1
Atom  11C    basis set group =>   1
Atom  12C    basis set group =>   1
Atom  13C    basis set group =>   1
Atom  14H    basis set group =>   3
Atom  15H    basis set group =>   3
Atom  16H    basis set group =>   3
Atom  17H    basis set group =>   3
Atom  18H    basis set group =>   3
Atom  19H    basis set group =>   3
Atom  20H    basis set group =>   3
Atom  21H    basis set group =>   3
Atom  22H    basis set group =>   3
Atom  23H    basis set group =>   3
Atom  24H    basis set group =>   3
Atom  25H    basis set group =>   3
Atom  26H    basis set group =>   3
Atom  27H    basis set group =>   3
Atom  28H    basis set group =>   3
Atom  29H    basis set group =>   3
------------------------------------------------------------------------------
                             ORCA STARTUP CALCULATIONS
                           -- RI-GTO INTEGRALS CHOSEN --
------------------------------------------------------------------------------
------------------------------------------------------------------------------
                   ___                                                        
                  /   \      - P O W E R E D   B Y -                         
                 /     \                                                     
                 |  |  |   _    _      __       _____    __    __             
                 |  |  |  | |  | |    /  \     |  _  \  |  |  /  |          
                  \  \/   | |  | |   /    \    | | | |  |  | /  /          
                 / \  \   | |__| |  /  /\  \   | |_| |  |  |/  /          
                |  |  |   |  __  | /  /__\  \  |    /   |      \           
                |  |  |   | |  | | |   __   |  |    \   |  |\   \          
                \     /   | |  | | |  |  |  |  | |\  \  |  | \   \       
                 \___/    |_|  |_| |__|  |__|  |_| \__\ |__|  \__/        
                                                                              
                      - O R C A' S   B I G   F R I E N D -                    
                                      &                                       
                       - I N T E G R A L  F E E D E R -                       
                                                                              
 v1 FN, 2020, v2 2021, v3 2022-2024                                           
------------------------------------------------------------------------------


----------------------
SHARK INTEGRAL PACKAGE
----------------------

Number of atoms                             ...     30
Number of basis functions                   ...    332
Number of shells                            ...    160
Maximum angular momentum                    ...      2
Integral batch strategy                     ... SHARK/LIBINT Hybrid
RI-J (if used) integral strategy            ... SPLIT-RIJ (Revised 2003 algorithm where possible)
Printlevel                                  ...      1
Contraction scheme used                     ... SEGMENTED contraction
Prescreening option                         ... SCHWARTZ
   Thresh                                   ... 1.000e-10
   Tcut                                     ... 1.000e-11
   Tpresel                                  ... 1.000e-11 
Coulomb Range Separation                    ... NOT USED
Exchange Range Separation                   ... NOT USED
Multipole approximations                    ... NOT USED
Finite Nucleus Model                        ... NOT USED
CABS basis                                  ... NOT available
Auxiliary Coulomb fitting basis             ... AVAILABLE
   # of basis functions in Aux-J            ...    862
   # of shells in Aux-J                     ...    290
   Maximum angular momentum in Aux-J        ...      4
Auxiliary J/K fitting basis                 ... NOT available
Auxiliary Correlation fitting basis         ... NOT available
Auxiliary 'external' fitting basis          ... NOT available

Checking pre-screening integrals            ... done (  0.0 sec) Dimension = 160
Check shell pair data                       ... done (  0.0 sec)
Shell pair information
Shell pair cut-off parameter TPreSel        ...   1.0e-11
Total number of shell pairs                 ...     12880
Shell pairs after pre-screening             ...     11629
Total number of primitive shell pairs       ...     51063
Primitive shell pairs kept                  ...     31286
          la=0 lb=0:   3536 shell pairs
          la=1 lb=0:   4606 shell pairs
          la=1 lb=1:   1548 shell pairs
          la=2 lb=0:   1109 shell pairs
          la=2 lb=1:    730 shell pairs
          la=2 lb=2:    100 shell pairs

Calculating one electron integrals          ... done (  0.0 sec)
Calculating RI/J V-Matrix + Cholesky decomp.... done (  0.0 sec)
Calculating Nuclear repulsion               ... done (  0.0 sec) ENN=   1071.705043886129 Eh

Diagonalization of the overlap matrix:
Smallest eigenvalue                        ... 4.680e-06
Time for diagonalization                   ...    0.016 sec
Threshold for overlap eigenvalues          ... 1.000e-07
Number of eigenvalues below threshold      ... 0
Time for construction of square roots      ...    0.001 sec
Total time needed                          ...    0.017 sec

-------------------
DFT GRID GENERATION
-------------------

General Integration Accuracy     IntAcc      ... 4.388
Radial Grid Type                 RadialGrid  ... OptM3 with GC (2021)
Angular Grid (max. ang.)         AngularGrid ... 4 (Lebedev-302)
Angular grid pruning method      GridPruning ... 4 (adaptive)
Weight generation scheme         WeightScheme... mBecke (2022)
Basis function cutoff            BFCut       ... 1.0000e-10
Integration weight cutoff        WCut        ... 1.0000e-14
Partially contracted basis set               ... off
Rotationally invariant grid construction     ... off
Angular grids for H and He will be reduced by one unit
Diffuse basis detected: some atoms will have their outermost
                        angular grid increased by 1.

Total number of grid points                  ...   137520
Total number of batches                      ...     2161
Average number of points per batch           ...       63
Average number of grid points per atom       ...     4584

--------------------
COSX GRID GENERATION
--------------------

GRIDX 1
-------
General Integration Accuracy     IntAcc      ... 3.816
Radial Grid Type                 RadialGrid  ... OptM3 with GC (2021)
Angular Grid (max. ang.)         AngularGrid ... 1 (Lebedev-50)
Angular grid pruning method      GridPruning ... 4 (adaptive)
Weight generation scheme         WeightScheme... mBecke (2022)
Basis function cutoff            BFCut       ... 1.0000e-10
Integration weight cutoff        WCut        ... 1.0000e-14
Partially contracted basis set               ... on
Rotationally invariant grid construction     ... off
Angular grids for H and He will be reduced by one unit
Diffuse basis detected: some atoms will have their outermost
                        angular grid increased by 1.

Total number of grid points                  ...    17509
Total number of batches                      ...      158
Average number of points per batch           ...      110
Average number of grid points per atom       ...      584
UseSFitting                                  ... on

GRIDX 2
-------
General Integration Accuracy     IntAcc      ... 4.020
Radial Grid Type                 RadialGrid  ... OptM3 with GC (2021)
Angular Grid (max. ang.)         AngularGrid ... 2 (Lebedev-110)
Angular grid pruning method      GridPruning ... 4 (adaptive)
Weight generation scheme         WeightScheme... mBecke (2022)
Basis function cutoff            BFCut       ... 1.0000e-10
Integration weight cutoff        WCut        ... 1.0000e-14
Partially contracted basis set               ... on
Rotationally invariant grid construction     ... off
Angular grids for H and He will be reduced by one unit
Diffuse basis detected: some atoms will have their outermost
                        angular grid increased by 1.

Total number of grid points                  ...    39678
Total number of batches                      ...      326
Average number of points per batch           ...      121
Average number of grid points per atom       ...     1323
UseSFitting                                  ... on

GRIDX 3
-------
General Integration Accuracy     IntAcc      ... 4.338
Radial Grid Type                 RadialGrid  ... OptM3 with GC (2021)
Angular Grid (max. ang.)         AngularGrid ... 3 (Lebedev-194)
Angular grid pruning method      GridPruning ... 4 (adaptive)
Weight generation scheme         WeightScheme... mBecke (2022)
Basis function cutoff            BFCut       ... 1.0000e-10
Integration weight cutoff        WCut        ... 1.0000e-14
Partially contracted basis set               ... on
Rotationally invariant grid construction     ... off
Angular grids for H and He will be reduced by one unit
Diffuse basis detected: some atoms will have their outermost
                        angular grid increased by 1.

Total number of grid points                  ...    85533
Total number of batches                      ...      683
Average number of points per batch           ...      125
Average number of grid points per atom       ...     2851
UseSFitting                                  ... on
Initializing property integral containers    ... done (  0.0 sec)

SHARK setup successfully completed in   2.4 seconds

Maximum memory used throughout the entire STARTUP-calculation: 63.7 MB
-------------------------------------------------------------------------------
                                 ORCA GUESS
                   Start orbitals & Density for SCF / CASSCF
-------------------------------------------------------------------------------

------------
SCF SETTINGS
------------
Hamiltonian:
 Density Functional     Method          .... DFT(GTOs)
 Exchange Functional    Exchange        .... B88
   X-Alpha parameter    XAlpha          ....  0.666667
   Becke's b parameter  XBeta           ....  0.004200
 Correlation Functional Correlation     .... LYP
 LDA part of GGA corr.  LDAOpt          .... VWN-5
 Gradients option       PostSCFGGA      .... off
 Hybrid DFT is turned on
   Fraction HF Exchange ScalHFX         ....  0.200000
   Scaling of DF-GGA-X  ScalDFX         ....  0.720000
   Scaling of DF-GGA-C  ScalDFC         ....  0.810000
   Scaling of DF-LDA-C  ScalLDAC        ....  1.000000
   Perturbative correction              ....  0.000000
   NL short-range parameter             ....  4.800000
 RI-approximation to the Coulomb term is turned on
   Number of AuxJ basis functions       .... 862
   RIJ-COSX (HFX calculated with COS-X)).... on


General Settings:
 Integral files         IntName         .... nmr
 Hartree-Fock type      HFTyp           .... RHF
 Total Charge           Charge          ....    0
 Multiplicity           Mult            ....    1
 Number of Electrons    NEL             ....  108
 Basis Dimension        Dim             ....  332
 Nuclear Repulsion      ENuc            ....   1071.7050438861 Eh

Convergence Acceleration:
 AO-DIIS                CNVDIIS         .... on
   Start iteration      DIISMaxIt       ....    12
   Startup error        DIISStart       ....  0.200000
   # of expansion vecs  DIISMaxEq       ....     5
   Bias factor          DIISBfac        ....   1.050
   Max. coefficient     DIISMaxC        ....  10.000
 MO-DIIS                CNVKDIIS        .... off
 Trust-Rad. Augm. Hess. CNVTRAH         .... auto
   Auto Start mean grad. ratio tolernc. ....  1.125000
   Auto Start start iteration           ....    50
   Auto Start num. interpolation iter.  ....    10
   Max. Number of Micro iterations      ....    24
   Max. Number of Macro iterations      .... Maxiter - #DIIS iter
   Number of Davidson start vectors     ....     2
   Converg. threshold    (grad. norm)   ....   5.000e-05
   Grad. Scal. Fac. for Micro threshold ....   0.100
   Minimum threshold for Micro iter.    ....   1.000e-02
   NR start threshold (gradient norm)   ....   1.000e-04
   Initial trust radius                 ....   0.400
   Minimum AH scaling param. (alpha)    ....   1.000
   Maximum AH scaling param. (alpha)    .... 1000.000
   Quad. conv. algorithm                .... NR
   White noise on init. David. guess    .... on
   Maximum white noise                  ....   0.010
   Pseudo random numbers                .... off
   Inactive MOs                         .... canonical
   Orbital update algorithm             .... Taylor
   Preconditioner                       .... Diag
   Full preconditioner red. dimension   ....   250
 SOSCF                  CNVSOSCF        .... on
   Start iteration      SOSCFMaxIt      ....   150
   Startup grad/error   SOSCFStart      ....  0.003300
   Hessian update       SOSCFHessUp     .... L-BFGS
 Level Shifting         CNVShift        .... on
   Level shift para.    LevelShift      ....    0.2500
   Turn off err/grad.   ShiftErr        ....    0.0010
 Zerner damping         CNVZerner       .... off
 Static damping         CNVDamp         .... on
   Fraction old density DampFac         ....    0.7000
   Max. Damping (<1)    DampMax         ....    0.9800
   Min. Damping (>=0)   DampMin         ....    0.0000
   Turn off err/grad.   DampErr         ....    0.1000

SCF Procedure:
 Maximum # iterations   MaxIter         ....   125
 SCF integral mode      SCFMode         .... Direct
   Integral package                     .... SHARK and LIBINT hybrid scheme
 Reset frequency        DirectResetFreq ....    20
 Integral Threshold     Thresh          ....  1.000e-10 Eh
 Primitive CutOff       TCut            ....  1.000e-11 Eh

Convergence Tolerance:
 Convergence Check Mode ConvCheckMode   .... Total+1el-Energy
 Convergence forced     ConvForced      .... 0
 Energy Change          TolE            ....  1.000e-06 Eh
 1-El. energy change                    ....  1.000e-03 Eh
 Orbital Gradient       TolG            ....  5.000e-05
 Orbital Rotation angle TolX            ....  5.000e-05
 DIIS Error             TolErr          ....  1.000e-06

------------------------------
INITIAL GUESS: MODEL POTENTIAL
------------------------------
Loading Hartree-Fock densities                     ... done
Calculating cut-offs                               ... done
Initializing the effective Hamiltonian             ... done
Setting up the integral package (SHARK)            ... done
Starting the Coulomb interaction                   ... done (   0.4 sec)
Making the grid                                    ... done (   0.3 sec)
Mapping shells                                     ... done
Starting the XC term evaluation                    ... done (   0.5 sec)
  promolecular density results
     # of electrons  =    108.000133376
     EX              =    -89.054896372
     EC              =     -3.701889314
     EX+EC           =    -92.756785686
Transforming the Hamiltonian                       ... done (   0.0 sec)
Diagonalizing the Hamiltonian                      ... done (   0.0 sec)
Back transforming the eigenvectors                 ... done (   0.0 sec)
Now organizing SCF variables                       ... done
                      ------------------
                      INITIAL GUESS DONE (   1.2 sec)
                      ------------------
             **** ENERGY FILE WAS UPDATED (nmr.en.tmp) ****
Finished Guess after   1.3 sec
Maximum memory used throughout the entire GUESS-calculation: 36.2 MB

-------------------------------------------------------------------------------------------
                                      ORCA LEAN-SCF
                              memory conserving SCF solver
-------------------------------------------------------------------------------------------

----------------------------------------D-I-I-S--------------------------------------------
Iteration    Energy (Eh)           Delta-E    RMSDP     MaxDP     DIISErr   Damp  Time(sec)
-------------------------------------------------------------------------------------------
               ***  Starting incremental Fock matrix formation  ***
    1    -690.8351399032485460     0.00e+00  1.17e-02  1.16e+00  1.75e-01  0.700  14.1
    2    -690.9902313134580254    -1.55e-01  1.03e-02  1.07e+00  7.66e-02  0.700   6.7
                               ***Turning on AO-DIIS***
    3    -691.0516845892179845    -6.15e-02  3.47e-03  3.75e-01  2.66e-02  0.700   6.5
    4    -691.0884173047088552    -3.67e-02  4.34e-03  3.64e-01  1.36e-02  0.000   6.4
    5    -691.1692398288250843    -8.08e-02  2.97e-03  3.41e-01  3.38e-03  0.000   7.4
                              *** Initializing SOSCF ***
---------------------------------------S-O-S-C-F--------------------------------------
Iteration    Energy (Eh)           Delta-E    RMSDP     MaxDP     MaxGrad    Time(sec)
--------------------------------------------------------------------------------------
    6    -691.1695391189919064    -2.99e-04  1.16e-03  1.36e-01  1.19e-03     6.1
               *** Restarting incremental Fock matrix formation ***
    7    -691.1695505994368887    -1.15e-05  8.96e-04  7.68e-02  1.13e-04    19.4
    8    -691.1695490660745236     1.53e-06  1.12e-03  1.42e-01  1.97e-04    10.1
    9    -691.1695549597379795    -5.89e-06  1.30e-03  1.37e-01  1.62e-05     9.2
   10    -691.1695549230760207     3.67e-08  9.11e-04  8.07e-02  2.64e-05     8.4
                 **** Energy Check signals convergence ****

               *****************************************************
               *                     SUCCESS                       *
               *           SCF CONVERGED AFTER  10 CYCLES          *
               *****************************************************

Recomputing exchange energy using gridx3       ... done (   26.803 sec)
Old exchange energy                            :    -18.115812994 Eh
New exchange energy                            :    -18.115779105 Eh
Exchange energy change after final integration :      0.000033889 Eh
Total energy after final integration           :   -691.169521034 Eh
             **** ENERGY FILE WAS UPDATED (nmr.en.tmp) ****

----------------
TOTAL SCF ENERGY
----------------

Total Energy       :       -691.16952103402730 Eh          -18807.67883 eV

Components:
Nuclear Repulsion  :       1071.70504388612858 Eh           29162.57684 eV
Electronic Energy  :      -1762.87459880920460 Eh          -47970.25659 eV
One Electron Energy:      -3071.12743874137504 Eh          -83569.62621 eV
Two Electron Energy:       1308.25283993217045 Eh           35599.36961 eV

Virial components:
Potential Energy   :      -1378.33641824855840 Eh          -37506.44073 eV
Kinetic Energy     :        687.16689721453122 Eh           18698.76190 eV
Virial Ratio       :          2.00582482048498

DFT components:
N(Alpha)           :       54.000104656071 electrons
N(Beta)            :       54.000104656071 electrons
N(Total)           :      108.000209312142 electrons
E(X)               :      -71.936176942897 Eh       
E(C)               :       -4.344417789668 Eh       
E(XC)              :      -76.280594732565 Eh       

---------------
SCF CONVERGENCE
---------------

  Last Energy change         ...   -3.6662e-08  Tolerance :   1.0000e-06
  Last MAX-Density change    ...    8.0725e-02  Tolerance :   1.0000e-05
  Last RMS-Density change    ...    9.1099e-04  Tolerance :   1.0000e-06
  Last DIIS Error            ...    1.1916e-03  Tolerance :   1.0000e-06
  Last Orbital Gradient      ...    2.6406e-05  Tolerance :   5.0000e-05
  Last Orbital Rotation      ...    1.5277e-05  Tolerance :   5.0000e-05


----------------
ORBITAL ENERGIES
----------------

  NO   OCC          E(Eh)            E(eV) 
   0   2.0000     -19.161277      -521.4049 
   1   2.0000     -19.161020      -521.3979 
   2   2.0000     -19.158859      -521.3391 
   3   2.0000     -19.158811      -521.3377 
   4   2.0000     -10.284531      -279.8563 
   5   2.0000     -10.284253      -279.8488 
   6   2.0000     -10.235944      -278.5342 
   7   2.0000     -10.235405      -278.5195 
   8   2.0000     -10.234041      -278.4824 
   9   2.0000     -10.233639      -278.4715 
  10   2.0000     -10.175622      -276.8928 
  11   2.0000     -10.174921      -276.8737 
  12   2.0000     -10.174373      -276.8588 
  13   2.0000     -10.172066      -276.7960 
  14   2.0000      -1.117786       -30.4165 
  15   2.0000      -1.096080       -29.8259 
  16   2.0000      -1.021785       -27.8042 
  17   2.0000      -1.010742       -27.5037 
  18   2.0000      -0.830893       -22.6097 
  19   2.0000      -0.770999       -20.9800 
  20   2.0000      -0.769077       -20.9277 
  21   2.0000      -0.713510       -19.4156 
  22   2.0000      -0.677536       -18.4367 
  23   2.0000      -0.647320       -17.6145 
  24   2.0000      -0.628624       -17.1057 
  25   2.0000      -0.615878       -16.7589 
  26   2.0000      -0.598213       -16.2782 
  27   2.0000      -0.541656       -14.7392 
  28   2.0000      -0.534834       -14.5536 
  29   2.0000      -0.516720       -14.0607 
  30   2.0000      -0.501171       -13.6376 
  31   2.0000      -0.483296       -13.1511 
  32   2.0000      -0.470839       -12.8122 
  33   2.0000      -0.466210       -12.6862 
  34   2.0000      -0.458255       -12.4697 
  35   2.0000      -0.442479       -12.0405 
  36   2.0000      -0.426224       -11.5981 
  37   2.0000      -0.415405       -11.3037 
  38   2.0000      -0.412510       -11.2250 
  39   2.0000      -0.397177       -10.8077 
  40   2.0000      -0.393958       -10.7202 
  41   2.0000      -0.379396       -10.3239 
  42   2.0000      -0.369415       -10.0523 
  43   2.0000      -0.359709        -9.7882 
  44   2.0000      -0.350947        -9.5498 
  45   2.0000      -0.348864        -9.4931 
  46   2.0000      -0.343943        -9.3592 
  47   2.0000      -0.332059        -9.0358 
  48   2.0000      -0.319756        -8.7010 
  49   2.0000      -0.307758        -8.3745 
  50   2.0000      -0.279660        -7.6099 
  51   2.0000      -0.269838        -7.3427 
  52   2.0000      -0.259289        -7.0556 
  53   2.0000      -0.237107        -6.4520 
  54   0.0000       0.003057         0.0832 
  55   0.0000       0.012793         0.3481 
  56   0.0000       0.014253         0.3878 
  57   0.0000       0.026259         0.7145 
  58   0.0000       0.028895         0.7863 
  59   0.0000       0.032136         0.8745 
  60   0.0000       0.038157         1.0383 
  61   0.0000       0.041202         1.1212 
  62   0.0000       0.044671         1.2156 
  63   0.0000       0.055330         1.5056 
  64   0.0000       0.061167         1.6644 
*Only the first 10 virtual orbitals were printed.

                    ********************************
                    * MULLIKEN POPULATION ANALYSIS *
                    ********************************

-----------------------
MULLIKEN ATOMIC CHARGES
-----------------------
   0 C :   -0.449680
   1 O :   -0.174009
   2 C :    0.087092
   3 C :    0.108319
   4 O :   -0.240093
   5 C :   -0.400532
   6 O :   -0.193460
   7 C :    0.070515
   8 C :    0.068483
   9 O :   -0.229795
  10 C :   -0.103800
  11 C :   -0.251555
  12 C :   -0.220323
  13 C :   -0.258092
  14 H :    0.122137
  15 H :    0.131848
  16 H :    0.123952
  17 H :    0.132336
  18 H :    0.132342
  19 H :    0.130152
  20 H :    0.124563
  21 H :    0.129741
  22 H :    0.152686
  23 H :    0.141177
  24 H :    0.129638
  25 H :    0.163149
  26 H :    0.133260
  27 H :    0.143392
  28 H :    0.155303
  29 H :    0.141255
Sum of atomic charges:   -0.0000000

--------------------------------
MULLIKEN REDUCED ORBITAL CHARGES
--------------------------------
  0 C s       :     3.530686  s :     3.530686
      pz      :     0.876670  p :     2.819711
      px      :     0.971938
      py      :     0.971103
      dz2     :     0.021643  d :     0.099283
      dxz     :     0.023238
      dyz     :     0.019294
      dx2y2   :     0.013597
      dxy     :     0.021512

  1 O s       :     3.700884  s :     3.700884
      pz      :     1.436912  p :     4.442952
      px      :     1.256920
      py      :     1.749119
      dz2     :     0.008686  d :     0.030173
      dxz     :     0.006194
      dyz     :     0.005021
      dx2y2   :     0.004441
      dxy     :     0.005831

  2 C s       :     3.142178  s :     3.142178
      pz      :     1.007606  p :     2.703431
      px      :     0.696387
      py      :     0.999438
      dz2     :     0.011745  d :     0.067299
      dxz     :     0.010680
      dyz     :     0.009510
      dx2y2   :     0.015759
      dxy     :     0.019605

  3 C s       :     3.117436  s :     3.117436
      pz      :     0.851569  p :     2.706627
      px      :     0.836563
      py      :     1.018495
      dz2     :     0.010465  d :     0.067618
      dxz     :     0.016937
      dyz     :     0.012746
      dx2y2   :     0.019031
      dxy     :     0.008438

  4 O s       :     3.740642  s :     3.740642
      pz      :     1.502636  p :     4.468408
      px      :     1.240783
      py      :     1.724989
      dz2     :     0.006036  d :     0.031043
      dxz     :     0.011797
      dyz     :     0.005503
      dx2y2   :     0.003681
      dxy     :     0.004027

  5 C s       :     3.512473  s :     3.512473
      pz      :     0.655321  p :     2.789653
      px      :     1.169456
      py      :     0.964875
      dz2     :     0.022434  d :     0.098407
      dxz     :     0.015735
      dyz     :     0.027563
      dx2y2   :     0.011476
      dxy     :     0.021199

  6 O s       :     3.717856  s :     3.717856
      pz      :     1.471780  p :     4.445105
      px      :     1.783981
      py      :     1.189344
      dz2     :     0.007563  d :     0.030498
      dxz     :     0.004238
      dyz     :     0.009863
      dx2y2   :     0.003637
      dxy     :     0.005197

  7 C s       :     3.163176  s :     3.163176
      pz      :     0.915009  p :     2.699047
      px      :     1.064893
      py      :     0.719146
      dz2     :     0.014085  d :     0.067262
      dxz     :     0.006832
      dyz     :     0.012009
      dx2y2   :     0.016325
      dxy     :     0.018011

  8 C s       :     3.150119  s :     3.150119
      pz      :     0.908230  p :     2.713919
      px      :     1.083595
      py      :     0.722094
      dz2     :     0.014235  d :     0.067478
      dxz     :     0.006693
      dyz     :     0.012536
      dx2y2   :     0.015027
      dxy     :     0.018988

  9 O s       :     3.741169  s :     3.741169
      pz      :     1.486699  p :     4.457811
      px      :     1.802475
      py      :     1.168637
      dz2     :     0.007291  d :     0.030816
      dxz     :     0.004340
      dyz     :     0.010470
      dx2y2   :     0.003545
      dxy     :     0.005169

 10 C s       :     3.149057  s :     3.149057
      pz      :     1.043556  p :     2.918975
      px      :     0.959943
      py      :     0.915476
      dz2     :     0.006610  d :     0.035768
      dxz     :     0.007348
      dyz     :     0.006649
      dx2y2   :     0.006291
      dxy     :     0.008871

 11 C s       :     3.283569  s :     3.283569
      pz      :     1.013810  p :     2.930242
      px      :     1.021543
      py      :     0.894889
      dz2     :     0.008425  d :     0.037743
      dxz     :     0.006758
      dyz     :     0.007260
      dx2y2   :     0.007504
      dxy     :     0.007796

 12 C s       :     3.244323  s :     3.244323
      pz      :     0.971681  p :     2.938875
      px      :     0.968895
      py      :     0.998299
      dz2     :     0.003280  d :     0.037125
      dxz     :     0.009989
      dyz     :     0.010555
      dx2y2   :     0.003779
      dxy     :     0.009523

 13 C s       :     3.412889  s :     3.412889
      pz      :     0.962934  p :     2.809405
      px      :     0.973305
      py      :     0.873166
      dz2     :     0.007259  d :     0.035798
      dxz     :     0.007202
      dyz     :     0.006621
      dx2y2   :     0.004978
      dxy     :     0.009739

 14 H s       :     0.867463  s :     0.867463
      pz      :     0.002179  p :     0.010400
      px      :     0.002959
      py      :     0.005262

 15 H s       :     0.857636  s :     0.857636
      pz      :     0.005608  p :     0.010516
      px      :     0.001584
      py      :     0.003324

 16 H s       :     0.865718  s :     0.865718
      pz      :     0.002195  p :     0.010329
      px      :     0.001600
      py      :     0.006535

 17 H s       :     0.857173  s :     0.857173
      pz      :     0.002740  p :     0.010491
      px      :     0.005498
      py      :     0.002252

 18 H s       :     0.857266  s :     0.857266
      pz      :     0.002594  p :     0.010392
      px      :     0.006148
      py      :     0.001651

 19 H s       :     0.859342  s :     0.859342
      pz      :     0.002900  p :     0.010506
      px      :     0.004144
      py      :     0.003462

 20 H s       :     0.865053  s :     0.865053
      pz      :     0.002517  p :     0.010384
      px      :     0.005816
      py      :     0.002051

 21 H s       :     0.859784  s :     0.859784
      pz      :     0.002776  p :     0.010475
      px      :     0.004666
      py      :     0.003033

 22 H s       :     0.836380  s :     0.836380
      pz      :     0.005673  p :     0.010934
      px      :     0.002988
      py      :     0.002274

 23 H s       :     0.847830  s :     0.847830
      pz      :     0.003814  p :     0.010994
      px      :     0.003647
      py      :     0.003533

 24 H s       :     0.859494  s :     0.859494
      pz      :     0.002290  p :     0.010867
      px      :     0.005693
      py      :     0.002884

 25 H s       :     0.825899  s :     0.825899
      pz      :     0.005692  p :     0.010952
      px      :     0.003101
      py      :     0.002160

 26 H s       :     0.855860  s :     0.855860
      pz      :     0.003777  p :     0.010880
      px      :     0.003720
      py      :     0.003383

 27 H s       :     0.845736  s :     0.845736
      pz      :     0.003745  p :     0.010872
      px      :     0.003093
      py      :     0.004034

 28 H s       :     0.833715  s :     0.833715
      pz      :     0.005821  p :     0.010982
      px      :     0.002875
      py      :     0.002285

 29 H s       :     0.847852  s :     0.847852
      pz      :     0.002316  p :     0.010893
      px      :     0.004826
      py      :     0.003751



                     *******************************
                     * LOEWDIN POPULATION ANALYSIS *
                     *******************************

----------------------
LOEWDIN ATOMIC CHARGES
----------------------
   0 C :    0.082208
   1 O :   -0.373494
   2 C :   -0.042326
   3 C :   -0.047817
   4 O :   -0.361701
   5 C :    0.084820
   6 O :   -0.367824
   7 C :   -0.048185
   8 C :   -0.052829
   9 O :   -0.364375
  10 C :   -0.214503
  11 C :   -0.256913
  12 C :   -0.256983
  13 C :   -0.214517
  14 H :    0.143058
  15 H :    0.151804
  16 H :    0.145084
  17 H :    0.148338
  18 H :    0.147782
  19 H :    0.147525
  20 H :    0.143655
  21 H :    0.149330
  22 H :    0.169477
  23 H :    0.164354
  24 H :    0.139061
  25 H :    0.162908
  26 H :    0.141948
  27 H :    0.148159
  28 H :    0.167392
  29 H :    0.164565

-------------------------------
LOEWDIN REDUCED ORBITAL CHARGES
-------------------------------
  0 C s       :     2.801892  s :     2.801892
      pz      :     0.873673  p :     2.894317
      px      :     0.973078
      py      :     1.047565
      dz2     :     0.048847  d :     0.221584
      dxz     :     0.051264
      dyz     :     0.043678
      dx2y2   :     0.026938
      dxy     :     0.050858

  1 O s       :     3.478701  s :     3.478701
      pz      :     1.554043  p :     4.826641
      px      :     1.442976
      py      :     1.829622
      dz2     :     0.018832  d :     0.068152
      dxz     :     0.016176
      dyz     :     0.009080
      dx2y2   :     0.011442
      dxy     :     0.012622

  2 C s       :     2.861571  s :     2.861571
      pz      :     1.083761  p :     3.036133
      px      :     0.874071
      py      :     1.078301
      dz2     :     0.025920  d :     0.144622
      dxz     :     0.021479
      dyz     :     0.021904
      dx2y2   :     0.032944
      dxy     :     0.042376

  3 C s       :     2.861055  s :     2.861055
      pz      :     0.989692  p :     3.041246
      px      :     0.967823
      py      :     1.083731
      dz2     :     0.022734  d :     0.145516
      dxz     :     0.037507
      dyz     :     0.029152
      dx2y2   :     0.040451
      dxy     :     0.015672

  4 O s       :     3.484659  s :     3.484659
      pz      :     1.607788  p :     4.807473
      px      :     1.411940
      py      :     1.787746
      dz2     :     0.010394  d :     0.069569
      dxz     :     0.027153
      dyz     :     0.010098
      dx2y2   :     0.010370
      dxy     :     0.011554

  5 C s       :     2.806999  s :     2.806999
      pz      :     0.830579  p :     2.889240
      px      :     1.086211
      py      :     0.972450
      dz2     :     0.053159  d :     0.218941
      dxz     :     0.030665
      dyz     :     0.061598
      dx2y2   :     0.021036
      dxy     :     0.052483

  6 O s       :     3.485629  s :     3.485629
      pz      :     1.572444  p :     4.813503
      px      :     1.862965
      py      :     1.378094
      dz2     :     0.014506  d :     0.068691
      dxz     :     0.006986
      dyz     :     0.024277
      dx2y2   :     0.010888
      dxy     :     0.012034

  7 C s       :     2.862261  s :     2.862261
      pz      :     1.050544  p :     3.041342
      px      :     1.097143
      py      :     0.893656
      dz2     :     0.034300  d :     0.144582
      dxz     :     0.013332
      dyz     :     0.025805
      dx2y2   :     0.033191
      dxy     :     0.037955

  8 C s       :     2.862248  s :     2.862248
      pz      :     1.048265  p :     3.045448
      px      :     1.106904
      py      :     0.890279
      dz2     :     0.034526  d :     0.145132
      dxz     :     0.012881
      dyz     :     0.027127
      dx2y2   :     0.030366
      dxy     :     0.040232

  9 O s       :     3.482158  s :     3.482158
      pz      :     1.581406  p :     4.812752
      px      :     1.865602
      py      :     1.365744
      dz2     :     0.013738  d :     0.069466
      dxz     :     0.007145
      dyz     :     0.025448
      dx2y2   :     0.011186
      dxy     :     0.011948

 10 C s       :     2.903956  s :     2.903956
      pz      :     1.103878  p :     3.233573
      px      :     1.050659
      py      :     1.079035
      dz2     :     0.013411  d :     0.076974
      dxz     :     0.014247
      dyz     :     0.014330
      dx2y2   :     0.015299
      dxy     :     0.019688

 11 C s       :     2.909361  s :     2.909361
      pz      :     1.097931  p :     3.267063
      px      :     1.100574
      py      :     1.068558
      dz2     :     0.016582  d :     0.080488
      dxz     :     0.013519
      dyz     :     0.017239
      dx2y2   :     0.016413
      dxy     :     0.016735

 12 C s       :     2.913020  s :     2.913020
      pz      :     1.094939  p :     3.264914
      px      :     1.086082
      py      :     1.083892
      dz2     :     0.006307  d :     0.079050
      dxz     :     0.021955
      dyz     :     0.022613
      dx2y2   :     0.007377
      dxy     :     0.020797

 13 C s       :     2.902245  s :     2.902245
      pz      :     1.084816  p :     3.235595
      px      :     1.094226
      py      :     1.056553
      dz2     :     0.014104  d :     0.076677
      dxz     :     0.015284
      dyz     :     0.015211
      dx2y2   :     0.010979
      dxy     :     0.021100

 14 H s       :     0.819905  s :     0.819905
      pz      :     0.006304  p :     0.037037
      px      :     0.010556
      py      :     0.020178

 15 H s       :     0.811207  s :     0.811207
      pz      :     0.020686  p :     0.036989
      px      :     0.005088
      py      :     0.011215

 16 H s       :     0.817641  s :     0.817641
      pz      :     0.006829  p :     0.037274
      px      :     0.005055
      py      :     0.025390

 17 H s       :     0.814906  s :     0.814906
      pz      :     0.009725  p :     0.036756
      px      :     0.020246
      py      :     0.006785

 18 H s       :     0.814761  s :     0.814761
      pz      :     0.008077  p :     0.037457
      px      :     0.023972
      py      :     0.005408

 19 H s       :     0.815699  s :     0.815699
      pz      :     0.009282  p :     0.036776
      px      :     0.015214
      py      :     0.012280

 20 H s       :     0.819148  s :     0.819148
      pz      :     0.007854  p :     0.037197
      px      :     0.022427
      py      :     0.006916

 21 H s       :     0.813867  s :     0.813867
      pz      :     0.008930  p :     0.036802
      px      :     0.017345
      py      :     0.010527

 22 H s       :     0.792446  s :     0.792446
      pz      :     0.021372  p :     0.038077
      px      :     0.010158
      py      :     0.006548

 23 H s       :     0.797950  s :     0.797950
      pz      :     0.012646  p :     0.037696
      px      :     0.012793
      py      :     0.012258

 24 H s       :     0.823468  s :     0.823468
      pz      :     0.006859  p :     0.037471
      px      :     0.021173
      py      :     0.009439

 25 H s       :     0.798579  s :     0.798579
      pz      :     0.021891  p :     0.038514
      px      :     0.010127
      py      :     0.006496

 26 H s       :     0.820602  s :     0.820602
      pz      :     0.013310  p :     0.037450
      px      :     0.012952
      py      :     0.011187

 27 H s       :     0.814261  s :     0.814261
      pz      :     0.013112  p :     0.037581
      px      :     0.010304
      py      :     0.014164

 28 H s       :     0.794217  s :     0.794217
      pz      :     0.021892  p :     0.038391
      px      :     0.009207
      py      :     0.007292

 29 H s       :     0.797811  s :     0.797811
      pz      :     0.006678  p :     0.037624
      px      :     0.017784
      py      :     0.013161



                      *****************************
                      * MAYER POPULATION ANALYSIS *
                      *****************************

  NA   - Mulliken gross atomic population
  ZA   - Total nuclear charge
  QA   - Mulliken gross atomic charge
  VA   - Mayer's total valence
  BVA  - Mayer's bonded valence
  FA   - Mayer's free valence

  ATOM       NA         ZA         QA         VA         BVA        FA
  0 C      6.4497     6.0000    -0.4497     4.7683     4.7683    -0.0000
  1 O      8.1740     8.0000    -0.1740     1.6838     1.6838    -0.0000
  2 C      5.9129     6.0000     0.0871     3.3973     3.3973    -0.0000
  3 C      5.8917     6.0000     0.1083     3.2778     3.2778    -0.0000
  4 O      8.2401     8.0000    -0.2401     1.7602     1.7602    -0.0000
  5 C      6.4005     6.0000    -0.4005     4.6308     4.6308    -0.0000
  6 O      8.1935     8.0000    -0.1935     1.6305     1.6305    -0.0000
  7 C      5.9295     6.0000     0.0705     3.3708     3.3708    -0.0000
  8 C      5.9315     6.0000     0.0685     3.3880     3.3880    -0.0000
  9 O      8.2298     8.0000    -0.2298     1.7203     1.7203     0.0000
 10 C      6.1038     6.0000    -0.1038     3.2872     3.2872     0.0000
 11 C      6.2516     6.0000    -0.2516     3.5219     3.5219    -0.0000
 12 C      6.2203     6.0000    -0.2203     3.6227     3.6227     0.0000
 13 C      6.2581     6.0000    -0.2581     3.4442     3.4442    -0.0000
 14 H      0.8779     1.0000     0.1221     0.9420     0.9420    -0.0000
 15 H      0.8682     1.0000     0.1318     0.9454     0.9454    -0.0000
 16 H      0.8760     1.0000     0.1240     0.9391     0.9391    -0.0000
 17 H      0.8677     1.0000     0.1323     0.9455     0.9455    -0.0000
 18 H      0.8677     1.0000     0.1323     0.9408     0.9408    -0.0000
 19 H      0.8698     1.0000     0.1302     0.9451     0.9451    -0.0000
 20 H      0.8754     1.0000     0.1246     0.9419     0.9419    -0.0000
 21 H      0.8703     1.0000     0.1297     0.9463     0.9463    -0.0000
 22 H      0.8473     1.0000     0.1527     0.9406     0.9406     0.0000
 23 H      0.8588     1.0000     0.1412     0.9478     0.9478     0.0000
 24 H      0.8704     1.0000     0.1296     0.9445     0.9445     0.0000
 25 H      0.8369     1.0000     0.1631     0.9383     0.9383     0.0000
 26 H      0.8667     1.0000     0.1333     0.9431     0.9431    -0.0000
 27 H      0.8566     1.0000     0.1434     0.9430     0.9430     0.0000
 28 H      0.8447     1.0000     0.1553     0.9408     0.9408    -0.0000
 29 H      0.8587     1.0000     0.1413     0.9509     0.9509    -0.0000

  Mayer bond orders larger than 0.100000
B(  0-C ,  1-O ) :   1.8338 B(  0-C ,  2-C ) :   0.1308 B(  0-C ,  4-O ) :   1.4396 
B(  0-C ,  5-C ) :   0.9483 B(  0-C ,  9-O ) :  -0.1985 B(  0-C , 12-C ) :  -0.1043 
B(  0-C , 13-C ) :   1.0747 B(  1-O ,  2-C ) :   0.6866 B(  1-O ,  3-C ) :  -0.1082 
B(  1-O ,  5-C ) :  -0.4227 B(  1-O , 11-C ) :  -0.1254 B(  1-O , 13-C ) :  -0.1839 
B(  2-C ,  3-C ) :   0.8708 B(  2-C , 14-H ) :   0.9977 B(  2-C , 15-H ) :   0.9853 
B(  3-C ,  4-O ) :   0.6704 B(  3-C , 16-H ) :   0.9764 B(  3-C , 17-H ) :   0.9981 
B(  4-O ,  5-C ) :  -0.1057 B(  5-C ,  6-O ) :   1.4913 B(  5-C ,  9-O ) :   1.5612 
B(  5-C , 10-C ) :   1.0038 B(  6-O ,  7-C ) :   0.7282 B(  6-O , 10-C ) :  -0.2564 
B(  6-O , 13-C ) :  -0.1712 B(  7-C ,  8-C ) :   0.8419 B(  7-C , 18-H ) :   0.9808 
B(  7-C , 19-H ) :   0.9973 B(  8-C ,  9-O ) :   0.7011 B(  8-C , 20-H ) :   0.9937 
B(  8-C , 21-H ) :   0.9966 B(  9-O , 10-C ) :  -0.1102 B( 10-C , 11-C ) :   0.9388 
B( 10-C , 22-H ) :   0.9952 B( 10-C , 23-H ) :   0.9490 B( 11-C , 12-C ) :   0.9119 
B( 11-C , 24-H ) :   0.9676 B( 11-C , 25-H ) :   0.9977 B( 12-C , 13-C ) :   0.9095 
B( 12-C , 26-H ) :   0.9638 B( 12-C , 27-H ) :   0.9792 B( 13-C , 28-H ) :   1.0320 
B( 13-C , 29-H ) :   1.0073 

-------
TIMINGS
-------

Total SCF time: 0 days 0 hours 2 min 1 sec 

Total time                  ....     121.377 sec
Sum of individual times     ....     121.358 sec  (100.0%)

SCF preparation             ....       0.083 sec  (  0.1%)
Fock matrix formation       ....     121.082 sec  ( 99.8%)
  Startup                   ....       0.006 sec  (  0.0% of F)
  Split-RI-J                ....       7.875 sec  (  6.5% of F)
  Chain of spheres X        ....      99.431 sec  ( 82.1% of F)
  XC integration            ....      13.725 sec  ( 11.3% of F)
    XC Preparation          ....       0.000 sec  (  0.0% of XC)
    Basis function eval.    ....       4.552 sec  ( 33.2% of XC)
    Density eval.           ....       2.970 sec  ( 21.6% of XC)
    XC-Functional eval.     ....       0.258 sec  (  1.9% of XC)
    XC-Potential eval.      ....       5.478 sec  ( 39.9% of XC)
Diagonalization             ....       0.000 sec  (  0.0%)
Density matrix formation    ....       0.019 sec  (  0.0%)
Total Energy calculation    ....       0.013 sec  (  0.0%)
Population analysis         ....       0.009 sec  (  0.0%)
Orbital Transformation      ....       0.021 sec  (  0.0%)
Orbital Orthonormalization  ....       0.000 sec  (  0.0%)
DIIS solution               ....       0.094 sec  (  0.1%)
SOSCF solution              ....       0.037 sec  (  0.0%)
Finished LeanSCF after 121.4 sec

Maximum memory used throughout the entire LEANSCF-calculation: 52.4 MB

------------------------------------------------------------------------------
                         ORCA PROPERTY INTEGRAL CALCULATIONS
------------------------------------------------------------------------------

GBWName                                   ... nmr.gbw
Number of atoms                           ...     30
Number of basis functions                 ...    332
Max core memory                           ...   1024 MB

Dipole integrals                          ... YES
Quadrupole integrals                      ...  NO
Linear momentum integrals                 ...  NO
Angular momentum integrals                ...  NO
Higher moments length integrals           ...  NO
Higher moments velocity integrals         ...  NO
Kinetic energy integrals                  ...  NO
GIAO right hand sides                     ... YES
GIAO dipole derivative integrals          ...  NO
SOC integrals                             ...  NO
EPR diamagnetic integrals (GIAO)          ...  NO
EPR gauge integrals                       ...  NO
Field gradient integrals                  ...  NO (   0 nuclei)
Spin-dipole/Fermi contact integrals       ...  NO (   0 nuclei)
Contact density integrals                 ...  NO (   0 nuclei)
Nucleus-orbit integrals                   ...  NO (   0 nuclei)
Geometric perturbations                   ...  NO (  30 nuclei)

Choice of electric origin   ... Center of mass
Position of electric origin ... ( -0.1397,  0.1743, -0.0715) 
Choice of magnetic origin   ... GIAO
Position of magnetic origin ... (  0.0000,  0.0000,  0.0000) 

Calculating integrals                     ... Electric Dipole (Length)     done (  0.0 sec)

Calculating integrals                     ... GIAO Right Hand Sides
     -> RIJCOSX used in SCF. Same chosen for GIAO calculation.
  One-electron GIAO integrals (SHARK)     ... done (  0.1 sec)
  Calculating G(B)[P]                     ... (RI-J: SHARK-ok) (COSX-ok) (add-J+K:ok) => dG/dB done ( 40.3 sec)
  DFT XC-terms                            ... done ( 59.9 sec)
  Extracting occupied and virtual blocks  ... 
  Operator  0  NO=  54 NV= 278 
  Transforming and RHS contribution       ... done
  Adding eps_i * S(B)_ai terms            ... done
  Projecting overlap derivatives          ... done (  0.0 sec)
  Building G[dS/dB_ij] (COSX)             ... done ( 15.8 sec)
  Transforming to MO basis                ... done
  Summing G[dS/dB_ij] into RHS contribs.  ... done
  GIAO Right hand sides done (117.1 sec)


Property integrals calculated in 117.3 sec

Maximum memory used throughout the entire PROPINT-calculation: 70.5 MB

-------------------------   --------------------
FINAL SINGLE POINT ENERGY      -691.169521034027
-------------------------   --------------------

------------------------------------------------------------------------------
                            ORCA SCF RESPONSE CALCULATION
------------------------------------------------------------------------------

GBWName                                 ... nmr.gbw
Number of atoms                         ...     30
Number of basis functions               ...    332
Max core memory                         ...   1024 MB

Electric field perturbation             ...  NO
Quadrupolar field perturbation          ...  NO
Magnetic field perturbation (no GIAO)   ...  NO
Magnetic field perturbation (with GIAO) ... YES
Linear momentum (velocity) perturbation ...  NO
Spin-orbit coupling perturbation        ...  NO
Choice of electric origin               ... Center of mass
Position of electric origin             ...    -0.139707     0.174293    -0.071489
Choice of magnetic origin               ... GIAO
Position of magnetic origin             ...     0.000000     0.000000     0.000000
Nuclear geometric perturbations         ...  NO (  90 perturbations)
Nucleus-orbit perturbations             ...  NO (   0 perturbations)
Spin-dipole/Fermi contact perturbations ...  NO (   0 perturbations)

Total number of real perturbations      ...      0
Total number of imaginary perturbations ...      3
Total number of triplet perturbations   ...      0
Total number of SOC perturbations       ...      0


                              ***************************
                              * IMAGINARY PERTURBATIONS *
                              ***************************



-------------------
SHARK CP-SCF DRIVER
-------------------

Dimension of the orbital basis          ...    332
Dimension of the CPSCF-problem          ...  15012
Number of operators                     ...      1
Max. number of iterations               ...    128
Convergence Tolerance                   ... 1.0e-03
Number of perturbations                 ...      3
Perturbation type                       ... IMAGINARY

----------------------------
POPLE LINEAR EQUATION SOLVER
----------------------------

  ITERATION   0:   ||err||_max =   8.0033e-01 (   6.0 sec   0/  3 done)
  ITERATION   1:   ||err||_max =   1.8279e-02 (   5.9 sec   0/  3 done)
  ITERATION   2:   ||err||_max =   1.0159e-03 (   4.9 sec   2/  3 done)
  ITERATION   3:   ||err||_max =   6.4379e-05 (   4.5 sec   3/  3 done)

CP-SCF equations solved in  21.4 sec
Response densities calculated in   0.0 sec

Maximum memory used throughout the entire SCFRESP-calculation: 55.7 MB

------------------------------------------------------------------------------
                              ORCA PROPERTY CALCULATIONS
------------------------------------------------------------------------------

GBWName                                 ... nmr.gbw
Number of atoms                         ...     30
Number of basis functions               ...    332
Max core memory                         ...   1024 MB

Electric properties:
Dipole moment                           ... YES
Quadrupole moment                       ...  NO
Static polarizability (Dipole/Dipole)   ...  NO
Static polarizability (Dipole/Quad.)    ...  NO
Static polarizability (Quad./Quad.)     ...  NO
Static polarizability (Velocity)        ...  NO

Atomic electric properties:
Dipole moment                           ...  NO
Quadrupole moment                       ...  NO
Static polarizability                   ...  NO

Choice of electric origin               ... Center of mass
Position of electric origin             ...    -0.139707     0.174293    -0.071489

General magnetic properties:
Magnetizability                         ...  NO

EPR properties:
g-Tensor (aka g-matrix)                 ...  NO
Zero-Field splitting spin-orbit         ...  NO
Zero-field splitting spin-spin          ...  NO
Hyperfine couplings                     ...  NO (   0 nuclei)
Quadrupole couplings                    ...  NO (   0 nuclei)
Contact density                         ...  NO (   0 nuclei)

NMR properties:
Chemical shifts                         ... YES (  30 nuclei)
Spin-rotation constants                 ...  NO (   0 nuclei)
Spin-spin couplings                     ...  NO (   0 nuclei,    0 pairs)

Choice of magnetic origin               ... GIAO
Position of magnetic origin             ...     0.000000     0.000000     0.000000

Properties with geometric perturbations:
SCF Hessian                             ...  NO
IR spectrum                             ...  NO
VCD spectrum                            ...  NO
X-ray spectroscopy properties:
SCF XES/XAS/RIXS spectra                ...  NO


-------------
DIPOLE MOMENT
-------------

Method             : SCF
Type of density    : Electron Density
Multiplicity       :   1
Irrep              :   0
Energy             :  -691.1695210340272979 Eh
Relativity type    : 
Basis              : AO
                                X                 Y                 Z
Electronic contribution:     -2.182165081       2.767061331      -0.918975862
Nuclear contribution   :      1.838354041      -2.289632062       1.087853940
                        -----------------------------------------
Total Dipole Moment    :     -0.343811040       0.477429268       0.168878077
                        -----------------------------------------
Magnitude (a.u.)       :      0.612098474
Magnitude (Debye)      :      1.555830678



--------------------
Rotational spectrum 
--------------------
 
Rotational constants in cm-1:             0.030880             0.027644             0.019339 
Rotational constants in MHz :           925.758871           828.760721           579.782754 

Dipole components along the rotational axes: 
x,y,z [a.u.] :     0.453582    -0.357449     0.202874 
x,y,z [Debye]:     1.152914    -0.908564     0.515665 

 

Dipole moment calculation done in   0.0 sec 
GIAO: Analytic para- and diamagnetic shielding integrals (SHARK)       ... done (  1.8 sec)
-------------------
CHEMICAL SHIELDINGS (ppm)
-------------------

Method             : SCF
Type of density    : Electron Density
Type of derivative : Magnetic Field (with GIAOs) (Direction=X)
Multiplicity       :   1
Irrep              :   0
Relativity type    : 
Basis              : AO
 --------------
 Nucleus   0C :
 --------------

Diamagnetic contribution to the shielding tensor (ppm) : 
           251.685        -18.511        -3.733
             4.426        259.918        -4.958
            10.045         -6.792       269.386

Paramagnetic contribution to the shielding tensor (ppm): 
          -168.517          6.094        -0.660
           -15.049       -200.734       -13.911
            -8.010        -18.083      -171.331

Total shielding tensor (ppm): 
            83.168        -12.416        -4.393
           -10.624         59.184       -18.868
             2.035        -24.875        98.055


 Diagonalized sT*s matrix:
 
 sDSO           253.661          253.729          273.599  iso=     260.330
 sPSO          -207.556         -167.856         -165.171  iso=    -180.194
        ---------------  ---------------  ---------------
 Total           46.106           85.873          108.428  iso=      80.136

 Orientation: 
  X          -0.3014616    0.9385785   -0.1679028
  Y          -0.8714806   -0.1997870    0.4478914
  Z          -0.3868364   -0.2813461   -0.8781810

 --------------
 Nucleus   1O :
 --------------

Diamagnetic contribution to the shielding tensor (ppm) : 
           425.029         -5.030       -26.422
            21.023        382.726       -28.572
           -55.836        -25.672       434.966

Paramagnetic contribution to the shielding tensor (ppm): 
          -165.918        -13.790         8.893
           -27.082       -168.727       -24.746
            63.622        -32.869      -121.607

Total shielding tensor (ppm): 
           259.110        -18.820       -17.529
            -6.059        213.999       -53.318
             7.786        -58.541       313.358


 Diagonalized sT*s matrix:
 
 sDSO           369.652          428.555          444.512  iso=     414.240
 sPSO          -183.185         -167.028         -106.040  iso=    -152.084
        ---------------  ---------------  ---------------
 Total          186.468          261.527          338.473  iso=     262.156

 Orientation: 
  X           0.2048300    0.9785108    0.0236895
  Y           0.8930275   -0.1769188   -0.4137652
  Z           0.4006827   -0.1059069    0.9100753

 --------------
 Nucleus   2C :
 --------------

Diamagnetic contribution to the shielding tensor (ppm) : 
           253.880         -2.604       -14.308
             3.130        225.140        -6.820
           -16.121         -2.620       224.246

Paramagnetic contribution to the shielding tensor (ppm): 
           -85.288        -15.581        10.207
           -22.286       -123.909        -8.604
            16.251         -7.112      -114.030

Total shielding tensor (ppm): 
           168.592        -18.185        -4.102
           -19.156        101.231       -15.424
             0.130         -9.731       110.216


 Diagonalized sT*s matrix:
 
 sDSO           219.151          232.610          251.505  iso=     234.422
 sPSO          -130.273         -114.893          -78.061  iso=    -107.742
        ---------------  ---------------  ---------------
 Total           88.878          117.717          173.444  iso=     126.680

 Orientation: 
  X           0.2108635   -0.1381493   -0.9677042
  Y           0.8416643   -0.4778009    0.2516101
  Z           0.4971296    0.8675374   -0.0155246

 --------------
 Nucleus   3C :
 --------------

Diamagnetic contribution to the shielding tensor (ppm) : 
           249.645         -5.189        -5.971
            -8.563        231.484        -4.748
            -1.977          5.248       234.636

Paramagnetic contribution to the shielding tensor (ppm): 
          -104.149        -11.917       -22.611
            -9.443       -126.924         1.477
           -31.040         -2.841      -105.782

Total shielding tensor (ppm): 
           145.496        -17.106       -28.582
           -18.006        104.560        -3.271
           -33.017          2.407       128.854


 Diagonalized sT*s matrix:
 
 sDSO           229.846          235.839          250.080  iso=     238.588
 sPSO          -137.278         -121.423          -78.154  iso=    -112.285
        ---------------  ---------------  ---------------
 Total           92.568          114.416          171.926  iso=     126.303

 Orientation: 
  X          -0.4954140    0.3337052   -0.8020011
  Y          -0.7557780   -0.6207186    0.2085857
  Z          -0.4282109    0.7094711    0.5597197

 --------------
 Nucleus   4O :
 --------------

Diamagnetic contribution to the shielding tensor (ppm) : 
           397.839         -9.716         9.471
            -8.216        353.741         2.114
             2.580         12.839       381.702

Paramagnetic contribution to the shielding tensor (ppm): 
          -134.751        -21.259        15.620
           -30.014       -140.669       -59.715
             5.074        -67.676       -81.044

Total shielding tensor (ppm): 
           263.088        -30.975        25.091
           -38.230        213.072       -57.602
             7.653        -54.837       300.659


 Diagonalized sT*s matrix:
 
 sDSO           362.682          391.375          379.226  iso=     377.761
 sPSO          -184.313         -133.204          -38.948  iso=    -118.821
        ---------------  ---------------  ---------------
 Total          178.369          258.171          340.278  iso=     258.939

 Orientation: 
  X           0.2755333   -0.8881791    0.3677217
  Y           0.8871053    0.0875745   -0.4531830
  Z           0.3703046    0.4510749    0.8120381

 --------------
 Nucleus   5C :
 --------------

[...]
            -2.254          0.836        -0.886
             1.212          1.016         4.327
            -3.500          9.811         5.140

Total shielding tensor (ppm): 
            27.872         -3.175         2.970
            -4.592         29.779        -1.682
             1.461         -0.766        24.300


 Diagonalized sT*s matrix:
 
 sDSO            19.855           20.390           37.804  iso=      26.017
 sPSO             3.300            4.981           -4.380  iso=       1.301
        ---------------  ---------------  ---------------
 Total           23.156           25.372           33.424  iso=      27.317

 Orientation: 
  X          -0.5286747   -0.5733568    0.6259114
  Y          -0.1506792   -0.6622835   -0.7339458
  Z           0.8353436   -0.4823303    0.2637396

 --------------
 Nucleus  19H :
 --------------

Diamagnetic contribution to the shielding tensor (ppm) : 
            24.930          5.109        -1.408
             8.902         34.743        -6.024
            -4.259        -10.344        20.931

Paramagnetic contribution to the shielding tensor (ppm): 
            -0.048         -2.881        -0.762
            -5.404         -3.115         2.387
             2.963          8.619         4.441

Total shielding tensor (ppm): 
            24.882          2.227        -2.170
             3.498         31.628        -3.637
            -1.296         -1.725        25.372


 Diagonalized sT*s matrix:
 
 sDSO            20.935           17.852           41.817  iso=      26.868
 sPSO             2.401            6.865           -7.988  iso=       0.426
        ---------------  ---------------  ---------------
 Total           23.336           24.718           33.829  iso=      27.294

 Orientation: 
  X           0.8232361   -0.4444355   -0.3532129
  Y          -0.1017236    0.4966304   -0.8619806
  Z           0.5585111    0.7455436    0.3636345

 --------------
 Nucleus  20H :
 --------------

Diamagnetic contribution to the shielding tensor (ppm) : 
            28.595          5.935         5.394
             6.860         30.522         2.892
             3.008          4.665        22.471

Paramagnetic contribution to the shielding tensor (ppm): 
            -1.600         -1.390        -2.316
            -1.089         -0.195        -1.664
            -1.157         -4.163         2.181

Total shielding tensor (ppm): 
            26.994          4.545         3.077
             5.772         30.327         1.227
             1.850          0.503        24.652


 Diagonalized sT*s matrix:
 
 sDSO            21.518           22.302           37.767  iso=      27.196
 sPSO             0.665            2.933           -3.211  iso=       0.129
        ---------------  ---------------  ---------------
 Total           22.183           25.235           34.555  iso=      27.324

 Orientation: 
  X          -0.7182386   -0.3467711    0.6032273
  Y           0.3973931    0.5072088    0.7647340
  Z           0.5711498   -0.7889798    0.2264925

 --------------
 Nucleus  21H :
 --------------

Diamagnetic contribution to the shielding tensor (ppm) : 
            24.367         -4.265        -1.213
            -9.018         33.671         4.487
            -3.953         10.074        16.568

Paramagnetic contribution to the shielding tensor (ppm): 
             0.917          2.338        -0.901
             5.967         -2.064        -1.277
             2.922         -8.623         8.518

Total shielding tensor (ppm): 
            25.284         -1.927        -2.114
            -3.051         31.607         3.210
            -1.031          1.451        25.086


 Diagonalized sT*s matrix:
 
 sDSO            17.771           17.311           39.524  iso=      24.869
 sPSO             5.839            7.692           -6.161  iso=       2.457
        ---------------  ---------------  ---------------
 Total           23.610           25.003           33.363  iso=      27.325

 Orientation: 
  X          -0.6965624    0.6314049   -0.3407765
  Y          -0.0007043    0.4743504    0.8803358
  Z          -0.7174958   -0.6134489    0.3299700

 --------------
 Nucleus  22H :
 --------------

Diamagnetic contribution to the shielding tensor (ppm) : 
            31.812         -2.759        -4.306
            -1.998         26.144         1.642
            -0.133          2.083        37.935

Paramagnetic contribution to the shielding tensor (ppm): 
            -0.989          1.844         0.471
             0.357          2.337        -2.138
            -2.865         -3.044        -9.314

Total shielding tensor (ppm): 
            30.824         -0.916        -3.834
            -1.641         28.480        -0.496
            -2.997         -0.961        28.621


 Diagonalized sT*s matrix:
 
 sDSO            32.135           27.249           36.506  iso=      31.964
 sPSO            -6.618            1.770           -3.117  iso=      -2.655
        ---------------  ---------------  ---------------
 Total           25.517           29.019           33.389  iso=      29.308

 Orientation: 
  X          -0.5630835    0.1521461   -0.8122737
  Y          -0.4187665   -0.8998969    0.1217381
  Z          -0.7124406    0.4087017    0.5704308

 --------------
 Nucleus  23H :
 --------------

Diamagnetic contribution to the shielding tensor (ppm) : 
            33.027          4.322         6.952
             0.509         29.169         4.157
             3.093          0.719        33.581

Paramagnetic contribution to the shielding tensor (ppm): 
            -0.764         -2.481        -3.693
             0.118          1.260        -3.707
            -0.386         -0.088        -7.786

Total shielding tensor (ppm): 
            32.264          1.841         3.259
             0.626         30.429         0.450
             2.707          0.631        25.795


 Diagonalized sT*s matrix:
 
 sDSO            30.045           28.012           37.720  iso=      31.926
 sPSO            -5.417            1.902           -3.775  iso=      -2.430
        ---------------  ---------------  ---------------
 Total           24.629           29.915           33.944  iso=      29.496

 Orientation: 
  X          -0.3665756    0.3451811    0.8639863
  Y          -0.0126568   -0.9303940    0.3663424
  Z           0.9303022    0.1233569    0.3454287

 --------------
 Nucleus  24H :
 --------------

Diamagnetic contribution to the shielding tensor (ppm) : 
            32.904         -6.402         4.770
            -7.400         26.355         0.017
             5.386         -5.119        26.374

Paramagnetic contribution to the shielding tensor (ppm): 
             1.030          2.906        -1.169
             4.418          3.030        -0.881
            -1.467          3.960        -0.150

Total shielding tensor (ppm): 
            33.933         -3.496         3.601
            -2.982         29.385        -0.864
             3.919         -1.160        26.224


 Diagonalized sT*s matrix:
 
 sDSO            23.655           22.522           39.456  iso=      28.544
 sPSO             1.016            5.377           -2.484  iso=       1.303
        ---------------  ---------------  ---------------
 Total           24.671           27.899           36.972  iso=      29.847

 Orientation: 
  X          -0.3961458   -0.3505331    0.8486430
  Y          -0.0780009   -0.9080702   -0.4114904
  Z           0.9148685   -0.2292051    0.3323863

 --------------
 Nucleus  25H :
 --------------

Diamagnetic contribution to the shielding tensor (ppm) : 
            26.184         -3.356         1.665
            -1.007         26.533        -0.005
            -4.280          1.570        33.332

Paramagnetic contribution to the shielding tensor (ppm): 
             0.846          2.885        -1.174
             0.733          0.853        -1.214
             3.827         -2.443        -0.049

Total shielding tensor (ppm): 
            27.030         -0.471         0.492
            -0.273         27.386        -1.219
            -0.453         -0.873        33.283


 Diagonalized sT*s matrix:
 
 sDSO            24.183           28.993           32.873  iso=      28.683
 sPSO             2.561           -1.502            0.591  iso=       0.550
        ---------------  ---------------  ---------------
 Total           26.743           27.492           33.464  iso=      29.233

 Orientation: 
  X           0.7849195   -0.6195785    0.0048882
  Y           0.6114598    0.7733116   -0.1676487
  Z           0.1000915    0.1345797    0.9858347

 --------------
 Nucleus  26H :
 --------------

Diamagnetic contribution to the shielding tensor (ppm) : 
            28.398         -4.952        -5.852
            -6.456         31.534         3.860
            -2.303          2.076        27.667

Paramagnetic contribution to the shielding tensor (ppm): 
             1.192          0.555         5.196
             1.846         -0.313         0.117
             1.487          1.272         0.557

Total shielding tensor (ppm): 
            29.590         -4.398        -0.655
            -4.610         31.220         3.977
            -0.816          3.348        28.223


 Diagonalized sT*s matrix:
 
 sDSO            25.843           23.684           38.072  iso=      29.200
 sPSO            -1.244            4.393           -1.714  iso=       0.478
        ---------------  ---------------  ---------------
 Total           24.599           28.077           36.358  iso=      29.678

 Orientation: 
  X          -0.5086981    0.6692716   -0.5415734
  Y          -0.6588402    0.1023197    0.7452921
  Z           0.5542164    0.7359390    0.3888931

 --------------
 Nucleus  27H :
 --------------

Diamagnetic contribution to the shielding tensor (ppm) : 
            26.777          1.489        -2.854
             2.076         32.756        -7.721
            -0.762         -2.673        27.446

Paramagnetic contribution to the shielding tensor (ppm): 
             0.843          0.501         3.045
             0.249          0.826         3.868
             0.751         -0.249        -0.537

Total shielding tensor (ppm): 
            27.620          1.991         0.191
             2.325         33.582        -3.853
            -0.010         -2.922        26.909


 Diagonalized sT*s matrix:
 
 sDSO            25.236           25.558           36.185  iso=      28.993
 sPSO            -0.138            1.964           -0.694  iso=       0.378
        ---------------  ---------------  ---------------
 Total           25.098           27.522           35.491  iso=      29.370

 Orientation: 
  X          -0.3936839   -0.8855923   -0.2464535
  Y           0.4327927    0.0579645   -0.8996280
  Z           0.8109892   -0.4608324    0.3604582

 --------------
 Nucleus  28H :
 --------------

Diamagnetic contribution to the shielding tensor (ppm) : 
            25.376          1.676         0.332
            -1.488         29.803         0.679
            -2.347         -1.697        35.419

Paramagnetic contribution to the shielding tensor (ppm): 
             1.487         -3.209        -1.388
            -0.111         -1.878         0.516
             0.873          2.245        -2.372

Total shielding tensor (ppm): 
            26.863         -1.533        -1.056
            -1.599         27.924         1.195
            -1.474          0.548        33.046


 Diagonalized sT*s matrix:
 
 sDSO            26.701           29.022           34.874  iso=      30.199
 sPSO            -1.001           -0.434           -1.329  iso=      -0.921
        ---------------  ---------------  ---------------
 Total           25.701           28.588           33.545  iso=      29.278

 Orientation: 
  X           0.8288318   -0.5087622   -0.2328064
  Y           0.5532811    0.8071550    0.2058660
  Z           0.0831740   -0.2994357    0.9504843

 --------------
 Nucleus  29H :
 --------------

Diamagnetic contribution to the shielding tensor (ppm) : 
            28.584          1.930         2.873
             4.735         31.792         0.461
             5.953          7.592        30.024

Paramagnetic contribution to the shielding tensor (ppm): 
             2.222         -0.527        -0.719
            -2.902         -0.408         1.683
            -2.943         -5.173        -3.262

Total shielding tensor (ppm): 
            30.806          1.403         2.153
             1.833         31.384         2.144
             3.010          2.419        26.762


 Diagonalized sT*s matrix:
 
 sDSO            26.022           26.916           37.463  iso=      30.134
 sPSO            -0.854            2.577           -3.173  iso=      -0.483
        ---------------  ---------------  ---------------
 Total           25.168           29.494           34.290  iso=      29.651

 Orientation: 
  X          -0.3393511   -0.7050804   -0.6226576
  Y          -0.2398642    0.7049166   -0.6675011
  Z           0.9095636   -0.0771640   -0.4083377



--------------------------------
CHEMICAL SHIELDING SUMMARY (ppm)
--------------------------------


  Nucleus  Element    Isotropic     Anisotropy
  -------  -------  ------------   ------------
      0       C           80.136         42.439 
      1       O          262.156        114.475 
      2       C          126.680         70.146 
      3       C          126.303         68.434 
      4       O          258.939        122.008 
      5       C           80.252         33.343 
      6       O          249.404        129.761 
      7       C          127.026         68.228 
      8       C          128.823         67.399 
      9       O          261.455        118.770 
     10       C          149.574         32.471 
     11       C          168.013         10.854 
     12       C          166.101         12.217 
     13       C          156.370         25.900 
     14       H           27.212         11.350 
     15       H           27.151          9.034 
     16       H           27.397          8.657 
     17       H           27.302          9.747 
     18       H           27.317          9.160 
     19       H           27.294          9.802 
     20       H           27.324         10.846 
     21       H           27.325          9.057 
     22       H           29.308          6.121 
     23       H           29.496          6.673 
     24       H           29.847         10.687 
     25       H           29.233          6.346 
     26       H           29.678         10.020 
     27       H           29.370          9.181 
     28       H           29.278          6.401 
     29       H           29.651          6.959 


NMR shielding tensor and spin rotation calculation done in   1.8 sec 

Maximum memory used throughout the entire PROP-calculation: 28.3 MB

--------------------------------
SUGGESTED CITATIONS FOR THIS RUN
--------------------------------

Below you find a list of papers that are relevant to this ORCA run
We neither can nor want to force you to cite these papers, but we appreciate if you do
You receive ORCA, which is the product of decades of hard work by many enthusiastic individuals, for free
The only thing we kindly ask in return is that you cite our papers,
We deeply appreciate it, if you show your appreciation for ORCA by not just citing the generic ORCA reference.

Please note that relegating all ORCA citations to the supporting information does *not* help us.
SI sections are not indexed - citations you put there will not count into any citation statistics
But we need these citations in order to attract the funding resources that allow us to do what we are doing

Therefore, if you are a happy ORCA user, please consider citing a few of the papers listed below in the main body of your paper

In addition to the list printed below, the program has created the file nmr.bibtex that contains the list in bibtex format
You can import this file easily into all common literature databanks and citation aid programs


List of essential papers. We consider these as the minimum necessary citations

  1. Neese,F.
     Software update: the ORCA program system, version 5.0
     WIRES Comput. Molec. Sci., 2022 12(1)e1606
     doi.org/10.1002/wcms.1606

List of papers to cite with high priority. The work reported in these papers was absolutely
necessary for this run to complete.
Our perspective: the developers of density functionals and basis sets usually get cited in chemistry papers
Good! But without the algorithms to do something with them, the functionals or basis sets would not do anything.
Hence, in our opinion, the algorithm design and method developments papers are equally worthy of getting cited

  1. Neese,F.
     An improvement of the resolution of the identity approximation for the formation of the Coulomb matrix
     J. Comp. Chem., 2003 24(14)1740-1747
     doi.org/10.1002/jcc.10318
  2. Neese,F.; Wennmohs,F.; Hansen,A.; Becker,U.
     Efficient, approximate and parallel Hartree-Fock and hybrid DFT calculations. A 'chain-of-spheres' algorithm for the Hartree-Fock exchange
     Chem. Phys., 2009 356(1-3)98-109
     doi.org/10.1016/j.chemphys.2008.10.036
  3. Stoychev,G.L.; Auer,A.A.; Izsak,R.; Neese,F.
     Self-Consistent Field Calculation of Nuclear Magnetic Resonance Chemical Shielding Constants Using Gauge-Including Atomic Orbitals and Approximate Two-Electron Integrals
     J. Chem. Theory Comput., 2018 14(2)619-637
     doi.org/10.1021/acs.jctc.7b01006
  4. Helmich-Paris,B.; de Souza,B.; Neese,F.; Izsák,R.
     An improved chain of spheres for exchange algorithm
     J. Chem. Phys., 2021 155 104109
     doi.org/doi: 10.1063/5.0058766.
  5. Neese,F.
     The SHARK Integral Generation and Digestion System
     J. Comp. Chem., 2022  1-16
     doi.org/10.1002/jcc.26942

List of suggested additional citations. These are papers that are important in the 'surrounding' of 
of this run, or papers that preceded the highly important papers. If you like your results we are grateful for a citation.

  1. Izsak,R.; Neese,F.
     An overlap fitted chain of spheres exchange method
     J. Chem. Phys., 2011 135 144105
     doi.org/10.1063/1.3646921
  2. Izsak,R.; Hansen,A.; Neese,F.
     The resolution of identity and chain of spheres approximations for the LPNO-CCSD singles Fock term
     Molec. Phys., 2012 110 2413-2417
     doi.org/10.1080/00268976.2012.687466
  3. Neese,F.
     The ORCA program system
     WIRES Comput. Molec. Sci., 2012 2(1)73-78
     doi.org/10.1002/wcms.81
  4. Izsak,R.; Neese,F.; Klopper,W.
     Robust fitting techniques in the chain of spheres approximation to the Fock exchange: The role of the complementary space
     J. Chem. Phys., 2013 139 
     doi.org/10.1063/1.4819264
  5. Neese,F.
     Software update: the ORCA program system, version 4.0
     WIRES Comput. Molec. Sci., 2018 8(1)1-6
     doi.org/10.1002/wcms.1327
  6. Neese,F.; Wennmohs,F.; Becker,U.; Riplinger,C.
     The ORCA quantum chemistry program package
     J. Chem. Phys., 2020 152 Art. No. L224108
     doi.org/10.1063/5.0004608

List of optional additional citations

  1. Neese,F.
     Approximate second-order SCF convergence for spin unrestricted wavefunctions
     Chem. Phys. Lett., 2000 325(1-3)93-98
     doi.org/10.1016/s0009-2614(00)00662-x

Timings for individual modules:

Sum of individual times          ...      269.409 sec (=   4.490 min)
Startup calculation              ...        2.493 sec (=   0.042 min)   0.9 %
SCF iterations                   ...      122.860 sec (=   2.048 min)  45.6 %
Property integrals               ...      117.775 sec (=   1.963 min)  43.7 %
SCF Response                     ...       24.248 sec (=   0.404 min)   9.0 %
Property calculations            ...        2.034 sec (=   0.034 min)   0.8 %
                             ****ORCA TERMINATED NORMALLY****
TOTAL RUN TIME: 0 days 0 hours 4 minutes 29 seconds 863 msec
