
                                 *****************
                                 * O   R   C   A *
                                 *****************

                                            #,                                       
                                            ###                                      
                                            ####                                     
                                            #####                                    
                                            ######                                   
                                           ########,                                 
                                     ,,################,,,,,                         
                               ,,#################################,,                 
                          ,,##########################################,,             
                       ,#########################################, ''#####,          
                    ,#############################################,,   '####,        
                  ,##################################################,,,,####,       
                ,###########''''           ''''###############################       
              ,#####''   ,,,,##########,,,,          '''####'''          '####       
            ,##' ,,,,###########################,,,                        '##       
           ' ,,###''''                  '''############,,,                           
         ,,##''                                '''############,,,,        ,,,,,,###''
      ,#''                                            '''#######################'''  
     '                                                          ''''####''''         
             ,#######,   #######,   ,#######,      ##                                
            ,#'     '#,  ##    ##  ,#'     '#,    #''#        ,####,   ,####,        
            ##       ##  ##   ,#'  ##            #'  '#       #'       #'  '#        
            ##       ##  #######   ##           ,######,      #####,   #    #        
            '#,     ,#'  ##    ##  '#,     ,#' ,#      #,     #,   #   #,  ,#        
             '#######'   ##     ##  '#######'  #'      '#     '####' # '####'        



                #########################################################
                #                        -***-                          #
                #          Department of theory and spectroscopy        #
                #                                                       #
                #                      Frank Neese                      #
                #                                                       #
                #     Directorship, Architecture, Infrastructure        #
                #                    SHARK, DRIVERS                     #
                #        Core code/Algorithms in most modules           #
                #                                                       #
                #        Max Planck Institute fuer Kohlenforschung      #
                #                Kaiser Wilhelm Platz 1                 #
                #                 D-45470 Muelheim/Ruhr                 #
                #                      Germany                          #
                #                                                       #
                #                  All rights reserved                  #
                #                        -***-                          #
                #########################################################


                         Program Version 6.0.0  -   RELEASE  -


 With contributions from (in alphabetic order):
   Daniel Aravena         : Magnetic Suceptibility
   Michael Atanasov       : Ab Initio Ligand Field Theory (pilot matlab implementation)
   Alexander A. Auer      : GIAO ZORA, VPT2 properties, NMR spectrum
   Ute Becker             : All parallelization in ORCA, NUMFREQ, NUMCALC
   Giovanni Bistoni       : ED, misc. LED, open-shell LED, HFLD
   Martin Brehm           : Molecular dynamics
   Dmytro Bykov           : pre 5.0 version of the SCF Hessian
   Marcos Casanova-Páez   : Triplet and SCS-CIS(D). UHF-(DLPNO)-IP/EA/STEOM-CCSD. UHF-CVS-IP/STEOM-CCSD
   Vijay G. Chilkuri      : MRCI spin determinant printing, contributions to CSF-ICE
   Pauline Colinet        : FMM embedding
   Dipayan Datta          : RHF DLPNO-CCSD density
   Achintya Kumar Dutta   : EOM-CC, STEOM-CC
   Nicolas Foglia         : Exact transition moments, OPA infrastructure, MCD improvements
   Dmitry Ganyushin       : Spin-Orbit,Spin-Spin,Magnetic field MRCI
   Miquel Garcia          : C-PCM and meta-GGA Hessian, CCSD/C-PCM, Gaussian charge scheme
   Tiago L. C. Gouveia    : GS-ROHF, GS-ROCIS
   Yang Guo               : DLPNO-NEVPT2, F12-NEVPT2, CIM, IAO-localization
   Andreas Hansen         : Spin unrestricted coupled pair/coupled cluster methods
   Ingolf Harden          : AUTO-CI MPn and infrastructure 
   Benjamin Helmich-Paris : MC-RPA, TRAH-(SCF,CASSCF), AVAS, COSX integrals, SCF dyn. polar.
   Lee Huntington         : MR-EOM, pCC
   Robert Izsak           : Overlap fitted RIJCOSX, COSX-SCS-MP3, EOM
   Riya Kayal             : Wick's Theorem for AUTO-CI, AUTO-CI UHF-CCSDT
   Emily Kempfer          : AUTO-CI, RHF CISDT and CCSDT
   Christian Kollmar      : KDIIS, OOCD, Brueckner-CCSD(T), CCSD density, CASPT2, CASPT2-K, improved NEVPT2
   Axel Koslowski         : Symmetry handling
   Simone Kossmann        : Meta GGA functionals, TD-DFT gradient, OOMP2, (MP2 Hessian; deprecated post 5.0)
   Lucas Lang             : DCDCAS
   Marvin Lechner         : AUTO-CI (C++ implementation), FIC-MRCC
   Spencer Leger          : CASSCF response
   Dagmar Lenk            : GEPOL surface, SMD, ORCA-2-JSON
   Dimitrios Liakos       : Extrapolation schemes; Compound Job, initial MDCI parallelization
   Dimitrios Manganas     : Further ROCIS development; embedding schemes. LFT, Crystal Embedding
   Dimitrios Pantazis     : SARC Basis sets
   Anastasios Papadopoulos: AUTO-CI, single reference methods and gradients
   Taras Petrenko         : pre 6.0 DFT Hessian and TD-DFT gradient, (ASA, deprecated), ECA, 1-Electron XAS/XES, NRVS
   Peter Pinski           : DLPNO-MP2, DLPNO-MP2 Gradient
   Christoph Reimann      : Effective Core Potentials
   Marius Retegan         : Local ZFS, SOC
   Christoph Riplinger    : Optimizer, TS searches, QM/MM, DLPNO-CCSD(T), (RO)-DLPNO pert. Triples
   Michael Roemelt        : Original ROCIS implementation
   Masaaki Saitow         : Open-shell DLPNO-CCSD energy and density
   Barbara Sandhoefer     : DKH picture change effects
   Kantharuban Sivalingam : CASSCF convergence/infrastructure, NEVPT2 and variants, FIC-MRCI
   Bernardo de Souza      : ESD, SOC TD-DFT
   Georgi Stoychev        : AutoAux, RI-MP2 NMR, DLPNO-MP2 response, X2C
   Van Anh Tran           : RI-MP2 g-tensors
   Willem Van den Heuvel  : Paramagnetic NMR
   Zikuan Wang            : NOTCH, Electric field optimization 
   Frank Wennmohs         : Technical directorship and infrastructure
   Hang Xu                : AUTO-CI-Response properties 


 We gratefully acknowledge several colleagues who have allowed us to
 interface, adapt or use parts of their codes:
   Stefan Grimme, W. Hujo, H. Kruse, P. Pracht,  : VdW corrections, initial TS optimization,
                  C. Bannwarth, S. Ehlert,         DFT functionals, gCP, sTDA/sTD-DF
                  L. Wittmann, M. Mueller
   Ed Valeev, F. Pavosevic, A. Kumar             : LibInt (2-el integral package), F12 methods
   Garnet Chan, S. Sharma, J. Yang, R. Olivares  : DMRG
   Ulf Ekstrom                                   : XCFun DFT Library
   Mihaly Kallay                                 : mrcc  (arbitrary order and MRCC methods)
   Frank Weinhold                                : gennbo (NPA and NBO analysis)
   Simon Mueller                                 : openCOSMO-RS
   Christopher J. Cramer and Donald G. Truhlar   : smd solvation model
   Lars Goerigk                                  : TD-DFT with DH, B97 family of functionals
   V. Asgeirsson, H. Jonsson                     : NEB implementation
   FAccTs GmbH                                   : IRC, NEB, NEB-TS, DLPNO-Multilevel, CI-OPT
                                                   MM, QMMM, 2- and 3-layer-ONIOM, Crystal-QMMM,
                                                   LR-CPCM, SF, NACMEs, symmetry and pop. for TD-DFT,
                                                   nearIR, NL-DFT gradient (VV10), updates on ESD,
                                                   ML-optimized integration grids, MBIS, APM,
                                                   GOAT, DOCKER, SOLVATOR, interface openCOSMO-RS
   S Lehtola, MJT Oliveira, MAL Marques          : LibXC Library
   Liviu Ungur et al                             : ANISO software


 Your calculation uses the libint2 library for the computation of 2-el integrals
 For citations please refer to: http://libint.valeyev.net

 Your ORCA version has been built with support for libXC version: 6.2.2
 For citations please refer to: https://libxc.gitlab.io

 This ORCA versions uses:
   CBLAS   interface :  Fast vector & matrix operations
   LAPACKE interface :  Fast linear algebra routines
   SCALAPACK package :  Parallel linear algebra routines
   Shared memory     :  Shared parallel matrices




***************************************
The coordinates will be read from file: opt.xyz
***************************************



Information: The global flag for NMR shieldings has been found
             ==>> will calculate the shieldings for all atoms in the system

================================================================================

----- Orbital basis set information -----
Your calculation utilizes the basis: 6-31+G(d,p)
   H-He, Li-Ne : W. J. Hehre, R. Ditchfield and J.A. Pople, J. Chem. Phys. 56, 2257 (1972).
                 Note: He and Ne are unpublished basis sets taken from the Gaussian program.
                 Note: Li and B from J. D. Dill and J. A. Pople, J. Chem. Phys. 62, 2921 (1975).
   Na - Ar     : M. M. Francl, W. J. Pietro, W. J. Hehre, J. S. Binkley, M. S. Gordon, 
                 D. J. DeFrees and J. A. Pople, J. Chem. Phys. 77, 3654 (1982).
   K - Zn      : V. A. Rassolov, J. A. Pople, M. A. Ratner, and T. L. Windus, J. Chem. Phys. 109, 1223 (1998).
   Additional Pol./Diff. from the 6-311G equivalent.

----- AuxJ basis set information -----
Your calculation utilizes the auxiliary basis: def2/J
   F. Weigend, Phys. Chem. Chem. Phys. 8, 1057 (2006).

================================================================================
                                        WARNINGS
                       Please study these warnings very carefully!
================================================================================


================================================================================
                                       INPUT FILE
================================================================================
NAME = nmr.com
|  1> ! B3LYP 6-31+G(d,p) def2/J RIJCOSX NMR
|  2> 
|  3> * xyzfile 0 1 opt.xyz
|  4> 
|  5> 
|  6>                          ****END OF INPUT****
================================================================================

                       ****************************
                       * Single Point Calculation *
                       ****************************

---------------------------------
CARTESIAN COORDINATES (ANGSTROEM)
---------------------------------
  C     -0.584718   -0.522845   -0.215942
  O     -1.193026   -1.058358    0.955315
  C     -2.207880   -0.147162    1.380515
  C     -2.611758    0.584158    0.084454
  O     -1.601692    0.230580   -0.866988
  C      0.617862    0.376234    0.185229
  O      1.260516    0.866927   -0.987853
  C      0.672354    2.129388   -1.307027
  C      0.313919    2.691150    0.073432
  O      0.162442    1.530124    0.897514
  C      1.622746   -0.415388    1.028764
  C      1.683717   -1.913855    0.653066
  C      1.322330   -2.134082   -0.823146
  C     -0.119557   -1.665368   -1.123870
  H     -3.020984   -0.738021    1.811525
  H     -1.814983    0.547661    2.129715
  H     -2.637642    1.671205    0.220555
  H     -3.577206    0.247897   -0.309319
  H     -0.213949    1.995717   -1.935839
  H      1.423464    2.722609   -1.835025
  H      1.113985    3.318791    0.485526
  H     -0.623309    3.257978    0.071497
  H      2.594895    0.068197    0.886581
  H      1.339530   -0.295057    2.077742
  H      2.685247   -2.305629    0.863351
  H      0.981859   -2.474340    1.280669
  H      2.025689   -1.576533   -1.451762
  H      1.426715   -3.192419   -1.087435
  H     -0.202660   -1.320035   -2.157681
  H     -0.837907   -2.479523   -0.983561

----------------------------
CARTESIAN COORDINATES (A.U.)
----------------------------
  NO LB      ZA    FRAG     MASS         X           Y           Z
   0 C     6.0000    0    12.011   -1.104957   -0.988034   -0.408072
   1 O     8.0000    0    15.999   -2.254492   -2.000007    1.805284
   2 C     6.0000    0    12.011   -4.172288   -0.278096    2.608795
   3 C     6.0000    0    12.011   -4.935507    1.103899    0.159595
   4 O     8.0000    0    15.999   -3.026758    0.435733   -1.638370
   5 C     6.0000    0    12.011    1.167590    0.710979    0.350033
   6 O     8.0000    0    15.999    2.382030    1.638256   -1.866772
   7 C     6.0000    0    12.011    1.270565    4.023959   -2.469923
   8 C     6.0000    0    12.011    0.593220    5.085536    0.138766
   9 O     8.0000    0    15.999    0.306971    2.891515    1.696056
  10 C     6.0000    0    12.011    3.066546   -0.784969    1.944083
  11 C     6.0000    0    12.011    3.181764   -3.616661    1.234115
  12 C     6.0000    0    12.011    2.498841   -4.032831   -1.555521
  13 C     6.0000    0    12.011   -0.225930   -3.147090   -2.123807
  14 H     1.0000    0     1.008   -5.708833   -1.394657    3.423285
  15 H     1.0000    0     1.008   -3.429820    1.034930    4.024578
  16 H     1.0000    0     1.008   -4.984420    3.158119    0.416788
  17 H     1.0000    0     1.008   -6.759940    0.468458   -0.584528
  18 H     1.0000    0     1.008   -0.404304    3.771359   -3.658206
  19 H     1.0000    0     1.008    2.689958    5.144985   -3.467695
  20 H     1.0000    0     1.008    2.105126    6.271606    0.917510
  21 H     1.0000    0     1.008   -1.177883    6.156687    0.135110
  22 H     1.0000    0     1.008    4.903640    0.128873    1.675395
  23 H     1.0000    0     1.008    2.531345   -0.557576    3.926364
  24 H     1.0000    0     1.008    5.074381   -4.357008    1.631496
  25 H     1.0000    0     1.008    1.855444   -4.675825    2.420113
  26 H     1.0000    0     1.008    3.827997   -2.979216   -2.743432
  27 H     1.0000    0     1.008    2.696101   -6.032797   -2.054954
  28 H     1.0000    0     1.008   -0.382972   -2.494505   -4.077426
  29 H     1.0000    0     1.008   -1.583414   -4.685620   -1.858661

--------------------------------
INTERNAL COORDINATES (ANGSTROEM)
--------------------------------
 C      0   0   0     0.000000000000     0.00000000     0.00000000
 O      1   0   0     1.424309148982     0.00000000     0.00000000
 C      2   1   0     1.428636532804   107.95886815     0.00000000
 C      3   2   1     1.541985648263   103.79180633    25.88804155
 O      1   2   3     1.423286666119   105.66526497   329.88571544
 C      1   2   3     1.554181916404   109.61551350    90.02299410
 O      6   1   2     1.424747967927   109.61678348   177.58758699
 C      7   6   1     1.428849977300   107.61074849    92.13083140
 C      8   7   6     1.532879067732   102.64354828    32.20074326
 O      6   1   2     1.430460964503   110.41549209   294.01392076
 C      6   1   2     1.532320891653   110.52838053    56.68070394
 C     11   6   1     1.546050014821   113.12914922    31.96454290
 C     12  11   6     1.535676235000   111.30355530    28.61578291
 C      1   2   3     1.531687731367   109.67590469   211.45647301
 H      3   2   1     1.093628111292   107.50911949   145.98750098
 H      3   2   1     1.094736492968   110.70466154   266.01429090
 H      4   3   2     1.095839295276   111.85524775   228.46397907
 H      4   3   2     1.095545308107   112.78995584   104.94638002
 H      8   7   6     1.094899368660   110.70955499   272.65521763
 H      8   7   6     1.093096677883   107.73104024   152.11189813
 H      9   8   7     1.097205750850   112.17084616    92.45892893
 H      9   8   7     1.095305354761   112.83925650   216.28135059
 H     11   6   1     1.095053640920   106.41359870   154.34698664
 H     11   6   1     1.093181304622   107.54589604   269.66749360
 H     12  11   6     1.095796161998   109.62924557   151.02567860
 H     12  11   6     1.095734783204   109.34924623   268.06099926
 H     13  12  11     1.095779046275   109.11324641    59.45416171
 H     13  12  11     1.095819926589   110.36047838   176.72089485
 H     14   1   2     1.093126482260   107.56955072   148.13289017
 H     14   1   2     1.094788011967   106.22914882    32.87203429

---------------------------
INTERNAL COORDINATES (A.U.)
---------------------------
 C      0   0   0     0.000000000000     0.00000000     0.00000000
 O      1   0   0     2.691554221615     0.00000000     0.00000000
 C      2   1   0     2.699731791915   107.95886815     0.00000000
 C      3   2   1     2.913930577654   103.79180633    25.88804155
 O      1   2   3     2.689622009027   105.66526497   329.88571544
 C      1   2   3     2.936978184297   109.61551350    90.02299410
 O      6   1   2     2.692383469243   109.61678348   177.58758699
 C      7   6   1     2.700135143556   107.61074849    92.13083140
 C      8   7   6     2.896721634435   102.64354828    32.20074326
 O      6   1   2     2.703179468176   110.41549209   294.01392076
 C      6   1   2     2.895666834510   110.52838053    56.68070394
 C     11   6   1     2.921611117356   113.12914922    31.96454290
 C     12  11   6     2.902007514521   111.30355530    28.61578291
 C      1   2   3     2.894470334971   109.67590469   211.45647301
 H      3   2   1     2.066657622700   107.50911949   145.98750098
 H      3   2   1     2.068752160519   110.70466154   266.01429090
 H      4   3   2     2.070836154860   111.85524775   228.46397907
 H      4   3   2     2.070280599625   112.78995584   104.94638002
 H      8   7   6     2.069059950970   110.70955499   272.65521763
 H      8   7   6     2.065653359099   107.73104024   152.11189813
 H      9   8   7     2.073418381670   112.17084616    92.45892893
 H      9   8   7     2.069827153516   112.83925650   216.28135059
 H     11   6   1     2.069351483292   106.41359870   154.34698664
 H     11   6   1     2.065813280458   107.54589604   269.66749360
 H     12  11   6     2.070754644779   109.62924557   151.02567860
 H     12  11   6     2.070638655668   109.34924623   268.06099926
 H     13  12  11     2.070722300750   109.11324641    59.45416171
 H     13  12  11     2.070799553346   110.36047838   176.72089485
 H     14   1   2     2.065709681208   107.56955072   148.13289017
 H     14   1   2     2.068849517318   106.22914882    32.87203429

---------------------
BASIS SET INFORMATION
---------------------
There are 3 groups of distinct atoms

 Group   1 Type C   : 11s5p1d contracted to 4s3p1d pattern {6311/311/1}
 Group   2 Type O   : 11s5p1d contracted to 4s3p1d pattern {6311/311/1}
 Group   3 Type H   : 4s1p contracted to 2s1p pattern {31/1}

Atom   0C    basis set group =>   1
Atom   1O    basis set group =>   2
Atom   2C    basis set group =>   1
Atom   3C    basis set group =>   1
Atom   4O    basis set group =>   2
Atom   5C    basis set group =>   1
Atom   6O    basis set group =>   2
Atom   7C    basis set group =>   1
Atom   8C    basis set group =>   1
Atom   9O    basis set group =>   2
Atom  10C    basis set group =>   1
Atom  11C    basis set group =>   1
Atom  12C    basis set group =>   1
Atom  13C    basis set group =>   1
Atom  14H    basis set group =>   3
Atom  15H    basis set group =>   3
Atom  16H    basis set group =>   3
Atom  17H    basis set group =>   3
Atom  18H    basis set group =>   3
Atom  19H    basis set group =>   3
Atom  20H    basis set group =>   3
Atom  21H    basis set group =>   3
Atom  22H    basis set group =>   3
Atom  23H    basis set group =>   3
Atom  24H    basis set group =>   3
Atom  25H    basis set group =>   3
Atom  26H    basis set group =>   3
Atom  27H    basis set group =>   3
Atom  28H    basis set group =>   3
Atom  29H    basis set group =>   3
---------------------------------
AUXILIARY/J BASIS SET INFORMATION
---------------------------------
There are 3 groups of distinct atoms

 Group   1 Type C   : 12s5p4d2f1g contracted to 6s4p3d1f1g pattern {711111/2111/211/2/1}
 Group   2 Type O   : 12s5p4d2f1g contracted to 6s4p3d1f1g pattern {711111/2111/211/2/1}
 Group   3 Type H   : 5s2p1d contracted to 3s1p1d pattern {311/2/1}

Atom   0C    basis set group =>   1
Atom   1O    basis set group =>   2
Atom   2C    basis set group =>   1
Atom   3C    basis set group =>   1
Atom   4O    basis set group =>   2
Atom   5C    basis set group =>   1
Atom   6O    basis set group =>   2
Atom   7C    basis set group =>   1
Atom   8C    basis set group =>   1
Atom   9O    basis set group =>   2
Atom  10C    basis set group =>   1
Atom  11C    basis set group =>   1
Atom  12C    basis set group =>   1
Atom  13C    basis set group =>   1
Atom  14H    basis set group =>   3
Atom  15H    basis set group =>   3
Atom  16H    basis set group =>   3
Atom  17H    basis set group =>   3
Atom  18H    basis set group =>   3
Atom  19H    basis set group =>   3
Atom  20H    basis set group =>   3
Atom  21H    basis set group =>   3
Atom  22H    basis set group =>   3
Atom  23H    basis set group =>   3
Atom  24H    basis set group =>   3
Atom  25H    basis set group =>   3
Atom  26H    basis set group =>   3
Atom  27H    basis set group =>   3
Atom  28H    basis set group =>   3
Atom  29H    basis set group =>   3
------------------------------------------------------------------------------
                             ORCA STARTUP CALCULATIONS
                           -- RI-GTO INTEGRALS CHOSEN --
------------------------------------------------------------------------------
------------------------------------------------------------------------------
                   ___                                                        
                  /   \      - P O W E R E D   B Y -                         
                 /     \                                                     
                 |  |  |   _    _      __       _____    __    __             
                 |  |  |  | |  | |    /  \     |  _  \  |  |  /  |          
                  \  \/   | |  | |   /    \    | | | |  |  | /  /          
                 / \  \   | |__| |  /  /\  \   | |_| |  |  |/  /          
                |  |  |   |  __  | /  /__\  \  |    /   |      \           
                |  |  |   | |  | | |   __   |  |    \   |  |\   \          
                \     /   | |  | | |  |  |  |  | |\  \  |  | \   \       
                 \___/    |_|  |_| |__|  |__|  |_| \__\ |__|  \__/        
                                                                              
                      - O R C A' S   B I G   F R I E N D -                    
                                      &                                       
                       - I N T E G R A L  F E E D E R -                       
                                                                              
 v1 FN, 2020, v2 2021, v3 2022-2024                                           
------------------------------------------------------------------------------


----------------------
SHARK INTEGRAL PACKAGE
----------------------

Number of atoms                             ...     30
Number of basis functions                   ...    332
Number of shells                            ...    160
Maximum angular momentum                    ...      2
Integral batch strategy                     ... SHARK/LIBINT Hybrid
RI-J (if used) integral strategy            ... SPLIT-RIJ (Revised 2003 algorithm where possible)
Printlevel                                  ...      1
Contraction scheme used                     ... SEGMENTED contraction
Prescreening option                         ... SCHWARTZ
   Thresh                                   ... 1.000e-10
   Tcut                                     ... 1.000e-11
   Tpresel                                  ... 1.000e-11 
Coulomb Range Separation                    ... NOT USED
Exchange Range Separation                   ... NOT USED
Multipole approximations                    ... NOT USED
Finite Nucleus Model                        ... NOT USED
CABS basis                                  ... NOT available
Auxiliary Coulomb fitting basis             ... AVAILABLE
   # of basis functions in Aux-J            ...    862
   # of shells in Aux-J                     ...    290
   Maximum angular momentum in Aux-J        ...      4
Auxiliary J/K fitting basis                 ... NOT available
Auxiliary Correlation fitting basis         ... NOT available
Auxiliary 'external' fitting basis          ... NOT available

Checking pre-screening integrals            ... done (  0.0 sec) Dimension = 160
Check shell pair data                       ... done (  0.0 sec)
Shell pair information
Shell pair cut-off parameter TPreSel        ...   1.0e-11
Total number of shell pairs                 ...     12880
Shell pairs after pre-screening             ...     11696
Total number of primitive shell pairs       ...     51063
Primitive shell pairs kept                  ...     31494
          la=0 lb=0:   3553 shell pairs
          la=1 lb=0:   4634 shell pairs
          la=1 lb=1:   1554 shell pairs
          la=2 lb=0:   1114 shell pairs
          la=2 lb=1:    740 shell pairs
          la=2 lb=2:    101 shell pairs

Calculating one electron integrals          ... done (  0.0 sec)
Calculating RI/J V-Matrix + Cholesky decomp.... done (  0.0 sec)
Calculating Nuclear repulsion               ... done (  0.0 sec) ENN=   1076.508843829859 Eh

Diagonalization of the overlap matrix:
Smallest eigenvalue                        ... 1.988e-06
Time for diagonalization                   ...    0.016 sec
Threshold for overlap eigenvalues          ... 1.000e-07
Number of eigenvalues below threshold      ... 0
Time for construction of square roots      ...    0.002 sec
Total time needed                          ...    0.018 sec

-------------------
DFT GRID GENERATION
-------------------

General Integration Accuracy     IntAcc      ... 4.388
Radial Grid Type                 RadialGrid  ... OptM3 with GC (2021)
Angular Grid (max. ang.)         AngularGrid ... 4 (Lebedev-302)
Angular grid pruning method      GridPruning ... 4 (adaptive)
Weight generation scheme         WeightScheme... mBecke (2022)
Basis function cutoff            BFCut       ... 1.0000e-10
Integration weight cutoff        WCut        ... 1.0000e-14
Partially contracted basis set               ... off
Rotationally invariant grid construction     ... off
Angular grids for H and He will be reduced by one unit
Diffuse basis detected: some atoms will have their outermost
                        angular grid increased by 1.

Total number of grid points                  ...   137430
Total number of batches                      ...     2162
Average number of points per batch           ...       63
Average number of grid points per atom       ...     4581

--------------------
COSX GRID GENERATION
--------------------

GRIDX 1
-------
General Integration Accuracy     IntAcc      ... 3.816
Radial Grid Type                 RadialGrid  ... OptM3 with GC (2021)
Angular Grid (max. ang.)         AngularGrid ... 1 (Lebedev-50)
Angular grid pruning method      GridPruning ... 4 (adaptive)
Weight generation scheme         WeightScheme... mBecke (2022)
Basis function cutoff            BFCut       ... 1.0000e-10
Integration weight cutoff        WCut        ... 1.0000e-14
Partially contracted basis set               ... on
Rotationally invariant grid construction     ... off
Angular grids for H and He will be reduced by one unit
Diffuse basis detected: some atoms will have their outermost
                        angular grid increased by 1.

Total number of grid points                  ...    17530
Total number of batches                      ...      158
Average number of points per batch           ...      110
Average number of grid points per atom       ...      584
UseSFitting                                  ... on

GRIDX 2
-------
General Integration Accuracy     IntAcc      ... 4.020
Radial Grid Type                 RadialGrid  ... OptM3 with GC (2021)
Angular Grid (max. ang.)         AngularGrid ... 2 (Lebedev-110)
Angular grid pruning method      GridPruning ... 4 (adaptive)
Weight generation scheme         WeightScheme... mBecke (2022)
Basis function cutoff            BFCut       ... 1.0000e-10
Integration weight cutoff        WCut        ... 1.0000e-14
Partially contracted basis set               ... on
Rotationally invariant grid construction     ... off
Angular grids for H and He will be reduced by one unit
Diffuse basis detected: some atoms will have their outermost
                        angular grid increased by 1.

Total number of grid points                  ...    39563
Total number of batches                      ...      326
Average number of points per batch           ...      121
Average number of grid points per atom       ...     1319
UseSFitting                                  ... on

GRIDX 3
-------
General Integration Accuracy     IntAcc      ... 4.338
Radial Grid Type                 RadialGrid  ... OptM3 with GC (2021)
Angular Grid (max. ang.)         AngularGrid ... 3 (Lebedev-194)
Angular grid pruning method      GridPruning ... 4 (adaptive)
Weight generation scheme         WeightScheme... mBecke (2022)
Basis function cutoff            BFCut       ... 1.0000e-10
Integration weight cutoff        WCut        ... 1.0000e-14
Partially contracted basis set               ... on
Rotationally invariant grid construction     ... off
Angular grids for H and He will be reduced by one unit
Diffuse basis detected: some atoms will have their outermost
                        angular grid increased by 1.

Total number of grid points                  ...    85363
Total number of batches                      ...      683
Average number of points per batch           ...      124
Average number of grid points per atom       ...     2845
UseSFitting                                  ... on
Initializing property integral containers    ... done (  0.0 sec)

SHARK setup successfully completed in   2.4 seconds

Maximum memory used throughout the entire STARTUP-calculation: 63.7 MB
-------------------------------------------------------------------------------
                                 ORCA GUESS
                   Start orbitals & Density for SCF / CASSCF
-------------------------------------------------------------------------------

------------
SCF SETTINGS
------------
Hamiltonian:
 Density Functional     Method          .... DFT(GTOs)
 Exchange Functional    Exchange        .... B88
   X-Alpha parameter    XAlpha          ....  0.666667
   Becke's b parameter  XBeta           ....  0.004200
 Correlation Functional Correlation     .... LYP
 LDA part of GGA corr.  LDAOpt          .... VWN-5
 Gradients option       PostSCFGGA      .... off
 Hybrid DFT is turned on
   Fraction HF Exchange ScalHFX         ....  0.200000
   Scaling of DF-GGA-X  ScalDFX         ....  0.720000
   Scaling of DF-GGA-C  ScalDFC         ....  0.810000
   Scaling of DF-LDA-C  ScalLDAC        ....  1.000000
   Perturbative correction              ....  0.000000
   NL short-range parameter             ....  4.800000
 RI-approximation to the Coulomb term is turned on
   Number of AuxJ basis functions       .... 862
   RIJ-COSX (HFX calculated with COS-X)).... on


General Settings:
 Integral files         IntName         .... nmr
 Hartree-Fock type      HFTyp           .... RHF
 Total Charge           Charge          ....    0
 Multiplicity           Mult            ....    1
 Number of Electrons    NEL             ....  108
 Basis Dimension        Dim             ....  332
 Nuclear Repulsion      ENuc            ....   1076.5088438299 Eh

Convergence Acceleration:
 AO-DIIS                CNVDIIS         .... on
   Start iteration      DIISMaxIt       ....    12
   Startup error        DIISStart       ....  0.200000
   # of expansion vecs  DIISMaxEq       ....     5
   Bias factor          DIISBfac        ....   1.050
   Max. coefficient     DIISMaxC        ....  10.000
 MO-DIIS                CNVKDIIS        .... off
 Trust-Rad. Augm. Hess. CNVTRAH         .... auto
   Auto Start mean grad. ratio tolernc. ....  1.125000
   Auto Start start iteration           ....    50
   Auto Start num. interpolation iter.  ....    10
   Max. Number of Micro iterations      ....    24
   Max. Number of Macro iterations      .... Maxiter - #DIIS iter
   Number of Davidson start vectors     ....     2
   Converg. threshold    (grad. norm)   ....   5.000e-05
   Grad. Scal. Fac. for Micro threshold ....   0.100
   Minimum threshold for Micro iter.    ....   1.000e-02
   NR start threshold (gradient norm)   ....   1.000e-04
   Initial trust radius                 ....   0.400
   Minimum AH scaling param. (alpha)    ....   1.000
   Maximum AH scaling param. (alpha)    .... 1000.000
   Quad. conv. algorithm                .... NR
   White noise on init. David. guess    .... on
   Maximum white noise                  ....   0.010
   Pseudo random numbers                .... off
   Inactive MOs                         .... canonical
   Orbital update algorithm             .... Taylor
   Preconditioner                       .... Diag
   Full preconditioner red. dimension   ....   250
 SOSCF                  CNVSOSCF        .... on
   Start iteration      SOSCFMaxIt      ....   150
   Startup grad/error   SOSCFStart      ....  0.003300
   Hessian update       SOSCFHessUp     .... L-BFGS
 Level Shifting         CNVShift        .... on
   Level shift para.    LevelShift      ....    0.2500
   Turn off err/grad.   ShiftErr        ....    0.0010
 Zerner damping         CNVZerner       .... off
 Static damping         CNVDamp         .... on
   Fraction old density DampFac         ....    0.7000
   Max. Damping (<1)    DampMax         ....    0.9800
   Min. Damping (>=0)   DampMin         ....    0.0000
   Turn off err/grad.   DampErr         ....    0.1000

SCF Procedure:
 Maximum # iterations   MaxIter         ....   125
 SCF integral mode      SCFMode         .... Direct
   Integral package                     .... SHARK and LIBINT hybrid scheme
 Reset frequency        DirectResetFreq ....    20
 Integral Threshold     Thresh          ....  1.000e-10 Eh
 Primitive CutOff       TCut            ....  1.000e-11 Eh

Convergence Tolerance:
 Convergence Check Mode ConvCheckMode   .... Total+1el-Energy
 Convergence forced     ConvForced      .... 0
 Energy Change          TolE            ....  1.000e-06 Eh
 1-El. energy change                    ....  1.000e-03 Eh
 Orbital Gradient       TolG            ....  5.000e-05
 Orbital Rotation angle TolX            ....  5.000e-05
 DIIS Error             TolErr          ....  1.000e-06

------------------------------
INITIAL GUESS: MODEL POTENTIAL
------------------------------
Loading Hartree-Fock densities                     ... done
Calculating cut-offs                               ... done
Initializing the effective Hamiltonian             ... done
Setting up the integral package (SHARK)            ... done
Starting the Coulomb interaction                   ... done (   0.4 sec)
Making the grid                                    ... done (   0.3 sec)
Mapping shells                                     ... done
Starting the XC term evaluation                    ... done (   0.4 sec)
  promolecular density results
     # of electrons  =    107.989722425
     EX              =    -89.016862131
     EC              =     -3.700746784
     EX+EC           =    -92.717608915
Transforming the Hamiltonian                       ... done (   0.0 sec)
Diagonalizing the Hamiltonian                      ... done (   0.0 sec)
Back transforming the eigenvectors                 ... done (   0.0 sec)
Now organizing SCF variables                       ... done
                      ------------------
                      INITIAL GUESS DONE (   1.1 sec)
                      ------------------
             **** ENERGY FILE WAS UPDATED (nmr.en.tmp) ****
Finished Guess after   1.2 sec
Maximum memory used throughout the entire GUESS-calculation: 36.3 MB

-------------------------------------------------------------------------------------------
                                      ORCA LEAN-SCF
                              memory conserving SCF solver
-------------------------------------------------------------------------------------------

----------------------------------------D-I-I-S--------------------------------------------
Iteration    Energy (Eh)           Delta-E    RMSDP     MaxDP     DIISErr   Damp  Time(sec)
-------------------------------------------------------------------------------------------
               ***  Starting incremental Fock matrix formation  ***
    1    -690.8705417512001077     0.00e+00  7.42e-03  5.76e-01  1.74e-01  0.700  13.9
    2    -691.0193051499218200    -1.49e-01  6.29e-03  4.98e-01  7.65e-02  0.700   6.6
                               ***Turning on AO-DIIS***
    3    -691.0788211514411614    -5.95e-02  2.21e-03  1.54e-01  2.98e-02  0.700   6.4
    4    -691.1145902400276100    -3.58e-02  4.89e-03  3.74e-01  1.50e-02  0.000   6.1
    5    -691.1931433392062445    -7.86e-02  3.13e-03  3.08e-01  3.31e-03  0.000   7.7
                              *** Initializing SOSCF ***
---------------------------------------S-O-S-C-F--------------------------------------
Iteration    Energy (Eh)           Delta-E    RMSDP     MaxDP     MaxGrad    Time(sec)
--------------------------------------------------------------------------------------
    6    -691.1934049445533219    -2.62e-04  8.47e-04  8.16e-02  1.18e-03    11.5
               *** Restarting incremental Fock matrix formation ***
    7    -691.1934740615656665    -6.91e-05  7.13e-04  8.25e-02  1.35e-04    16.6
    8    -691.1934722793935180     1.78e-06  1.97e-03  1.65e-01  2.29e-04    10.0
    9    -691.1934780662049889    -5.79e-06  4.10e-03  3.08e-01  3.12e-05     8.7
   10    -691.1934779853500004     8.09e-08  3.53e-03  3.50e-01  3.24e-05     8.0
                 **** Energy Check signals convergence ****

               *****************************************************
               *                     SUCCESS                       *
               *           SCF CONVERGED AFTER  10 CYCLES          *
               *****************************************************

Recomputing exchange energy using gridx3       ... done (   24.045 sec)
Old exchange energy                            :    -18.111025266 Eh
New exchange energy                            :    -18.111029096 Eh
Exchange energy change after final integration :     -0.000003829 Eh
Total energy after final integration           :   -691.193481815 Eh
             **** ENERGY FILE WAS UPDATED (nmr.en.tmp) ****

----------------
TOTAL SCF ENERGY
----------------

Total Energy       :       -691.19348181458952 Eh          -18808.33084 eV

Components:
Nuclear Repulsion  :       1076.50884382985896 Eh           29293.29488 eV
Electronic Energy  :      -1767.70232181520896 Eh          -48101.62562 eV
One Electron Energy:      -3081.13635536927541 Eh          -83841.98267 eV
Two Electron Energy:       1313.43403355406645 Eh           35740.35706 eV

Virial components:
Potential Energy   :      -1378.19524013497494 Eh          -37502.59908 eV
Kinetic Energy     :        687.00175832038542 Eh           18694.26824 eV
Virial Ratio       :          2.00610147418611

DFT components:
N(Alpha)           :       53.999942505328 electrons
N(Beta)            :       53.999942505328 electrons
N(Total)           :      107.999885010655 electrons
E(X)               :      -71.919843366669 Eh       
E(C)               :       -4.343898210700 Eh       
E(XC)              :      -76.263741577369 Eh       

---------------
SCF CONVERGENCE
---------------

  Last Energy change         ...   -8.0855e-08  Tolerance :   1.0000e-06
  Last MAX-Density change    ...    3.4993e-01  Tolerance :   1.0000e-05
  Last RMS-Density change    ...    3.5302e-03  Tolerance :   1.0000e-06
  Last DIIS Error            ...    1.1844e-03  Tolerance :   1.0000e-06
  Last Orbital Gradient      ...    3.2419e-05  Tolerance :   5.0000e-05
  Last Orbital Rotation      ...    2.4178e-05  Tolerance :   5.0000e-05


----------------
ORBITAL ENERGIES
----------------

  NO   OCC          E(Eh)            E(eV) 
   0   2.0000     -19.158585      -521.3316 
   1   2.0000     -19.157151      -521.2926 
   2   2.0000     -19.156594      -521.2774 
   3   2.0000     -19.156333      -521.2703 
   4   2.0000     -10.281274      -279.7677 
   5   2.0000     -10.280471      -279.7458 
   6   2.0000     -10.237271      -278.5703 
   7   2.0000     -10.235082      -278.5107 
   8   2.0000     -10.233115      -278.4572 
   9   2.0000     -10.231694      -278.4186 
  10   2.0000     -10.172010      -276.7945 
  11   2.0000     -10.171655      -276.7848 
  12   2.0000     -10.170835      -276.7625 
  13   2.0000     -10.170616      -276.7565 
  14   2.0000      -1.101608       -29.9763 
  15   2.0000      -1.078333       -29.3429 
  16   2.0000      -0.998335       -27.1661 
  17   2.0000      -0.994767       -27.0690 
  18   2.0000      -0.829243       -22.5648 
  19   2.0000      -0.771246       -20.9867 
  20   2.0000      -0.762834       -20.7578 
  21   2.0000      -0.716634       -19.5006 
  22   2.0000      -0.673596       -18.3295 
  23   2.0000      -0.637310       -17.3421 
  24   2.0000      -0.634572       -17.2676 
  25   2.0000      -0.613171       -16.6852 
  26   2.0000      -0.598166       -16.2769 
  27   2.0000      -0.542403       -14.7595 
  28   2.0000      -0.524952       -14.2847 
  29   2.0000      -0.501766       -13.6538 
  30   2.0000      -0.497976       -13.5506 
  31   2.0000      -0.477926       -13.0050 
  32   2.0000      -0.471595       -12.8327 
  33   2.0000      -0.466480       -12.6936 
  34   2.0000      -0.464164       -12.6306 
  35   2.0000      -0.437446       -11.9035 
  36   2.0000      -0.422420       -11.4946 
  37   2.0000      -0.413457       -11.2507 
  38   2.0000      -0.408480       -11.1153 
  39   2.0000      -0.403365       -10.9761 
  40   2.0000      -0.386612       -10.5202 
  41   2.0000      -0.381695       -10.3864 
  42   2.0000      -0.363955        -9.9037 
  43   2.0000      -0.347673        -9.4607 
  44   2.0000      -0.343674        -9.3518 
  45   2.0000      -0.341264        -9.2863 
  46   2.0000      -0.337494        -9.1837 
  47   2.0000      -0.328236        -8.9318 
  48   2.0000      -0.323494        -8.8027 
  49   2.0000      -0.311186        -8.4678 
  50   2.0000      -0.292658        -7.9636 
  51   2.0000      -0.274052        -7.4573 
  52   2.0000      -0.268226        -7.2988 
  53   2.0000      -0.234735        -6.3875 
  54   0.0000       0.006330         0.1723 
  55   0.0000       0.016011         0.4357 
  56   0.0000       0.016682         0.4539 
  57   0.0000       0.022407         0.6097 
  58   0.0000       0.033029         0.8988 
  59   0.0000       0.035268         0.9597 
  60   0.0000       0.039213         1.0671 
  61   0.0000       0.039959         1.0873 
  62   0.0000       0.044308         1.2057 
  63   0.0000       0.057658         1.5690 
  64   0.0000       0.058791         1.5998 
*Only the first 10 virtual orbitals were printed.

                    ********************************
                    * MULLIKEN POPULATION ANALYSIS *
                    ********************************

-----------------------
MULLIKEN ATOMIC CHARGES
-----------------------
   0 C :   -0.046860
   1 O :   -0.264912
   2 C :    0.086526
   3 C :    0.118872
   4 O :   -0.281990
   5 C :   -0.108610
   6 O :   -0.268859
   7 C :    0.093407
   8 C :    0.115012
   9 O :   -0.289347
  10 C :   -0.410850
  11 C :   -0.280772
  12 C :   -0.230702
  13 C :   -0.532184
  14 H :    0.130772
  15 H :    0.156485
  16 H :    0.130324
  17 H :    0.129955
  18 H :    0.161636
  19 H :    0.133427
  20 H :    0.130705
  21 H :    0.130121
  22 H :    0.148807
  23 H :    0.159157
  24 H :    0.130626
  25 H :    0.158774
  26 H :    0.158215
  27 H :    0.130804
  28 H :    0.159626
  29 H :    0.151831
Sum of atomic charges:   -0.0000000

--------------------------------
MULLIKEN REDUCED ORBITAL CHARGES
--------------------------------
  0 C s       :     3.212368  s :     3.212368
      pz      :     0.885763  p :     2.736444
      px      :     0.866841
      py      :     0.983840
      dz2     :     0.018882  d :     0.098048
      dxz     :     0.022618
      dyz     :     0.018852
      dx2y2   :     0.013818
      dxy     :     0.023878

  1 O s       :     3.725642  s :     3.725642
      pz      :     1.476677  p :     4.510870
      px      :     1.482358
      py      :     1.551835
      dz2     :     0.005928  d :     0.028400
      dxz     :     0.003898
      dyz     :     0.006993
      dx2y2   :     0.003897
      dxy     :     0.007685

  2 C s       :     3.159042  s :     3.159042
      pz      :     0.966525  p :     2.693514
      px      :     0.836551
      py      :     0.890438
      dz2     :     0.007949  d :     0.060918
      dxz     :     0.010998
      dyz     :     0.015952
      dx2y2   :     0.009996
      dxy     :     0.016023

  3 C s       :     3.119646  s :     3.119646
      pz      :     0.821264  p :     2.700979
      px      :     0.852039
      py      :     1.027676
      dz2     :     0.010706  d :     0.060503
      dxz     :     0.015816
      dyz     :     0.009808
      dx2y2   :     0.016532
      dxy     :     0.007640

  4 O s       :     3.739057  s :     3.739057
      pz      :     1.521701  p :     4.515266
      px      :     1.318720
      py      :     1.674846
      dz2     :     0.005350  d :     0.027667
      dxz     :     0.009472
      dyz     :     0.005182
      dx2y2   :     0.003658
      dxy     :     0.004005

  5 C s       :     3.179678  s :     3.179678
      pz      :     0.894932  p :     2.832119
      px      :     1.056987
      py      :     0.880200
      dz2     :     0.018726  d :     0.096813
      dxz     :     0.018149
      dyz     :     0.023339
      dx2y2   :     0.013282
      dxy     :     0.023318

  6 O s       :     3.730847  s :     3.730847
      pz      :     1.496631  p :     4.509423
      px      :     1.648285
      py      :     1.364507
      dz2     :     0.006132  d :     0.028590
      dxz     :     0.006685
      dyz     :     0.004225
      dx2y2   :     0.004365
      dxy     :     0.007183

  7 C s       :     3.159187  s :     3.159187
      pz      :     0.960534  p :     2.686113
      px      :     1.015058
      py      :     0.710521
      dz2     :     0.008364  d :     0.061293
      dxz     :     0.013261
      dyz     :     0.012323
      dx2y2   :     0.013248
      dxy     :     0.014097

  8 C s       :     3.120073  s :     3.120073
      pz      :     0.851435  p :     2.703867
      px      :     1.068424
      py      :     0.784008
      dz2     :     0.011646  d :     0.061048
      dxz     :     0.006814
      dyz     :     0.016214
      dx2y2   :     0.008475
      dxy     :     0.017899

  9 O s       :     3.729520  s :     3.729520
      pz      :     1.567836  p :     4.532557
      px      :     1.789981
      py      :     1.174740
      dz2     :     0.004569  d :     0.027270
      dxz     :     0.003838
      dyz     :     0.010779
      dx2y2   :     0.002900
      dxy     :     0.005183

 10 C s       :     3.521111  s :     3.521111
      pz      :     0.996139  p :     2.854106
      px      :     1.010953
      py      :     0.847014
      dz2     :     0.008760  d :     0.035633
      dxz     :     0.004942
      dyz     :     0.005793
      dx2y2   :     0.006926
      dxy     :     0.009213

 11 C s       :     3.304453  s :     3.304453
      pz      :     0.951870  p :     2.938656
      px      :     1.053270
      py      :     0.933516
      dz2     :     0.008486  d :     0.037663
      dxz     :     0.006776
      dyz     :     0.007583
      dx2y2   :     0.007589
      dxy     :     0.007229

 12 C s       :     3.260384  s :     3.260384
      pz      :     0.954642  p :     2.932640
      px      :     0.938038
      py      :     1.039961
      dz2     :     0.008312  d :     0.037678
      dxz     :     0.008573
      dyz     :     0.005993
      dx2y2   :     0.008852
      dxy     :     0.005948

 13 C s       :     3.626812  s :     3.626812
      pz      :     0.991799  p :     2.869760
      px      :     0.905042
      py      :     0.972918
      dz2     :     0.008234  d :     0.035612
      dxz     :     0.004376
      dyz     :     0.007041
      dx2y2   :     0.005736
      dxy     :     0.010226

 14 H s       :     0.858489  s :     0.858489
      pz      :     0.002986  p :     0.010739
      px      :     0.004584
      py      :     0.003169

 15 H s       :     0.832454  s :     0.832454
      pz      :     0.004298  p :     0.011060
      px      :     0.002556
      py      :     0.004205

 16 H s       :     0.858919  s :     0.858919
      pz      :     0.002026  p :     0.010756
      px      :     0.001814
      py      :     0.006917

 17 H s       :     0.859351  s :     0.859351
      pz      :     0.002360  p :     0.010693
      px      :     0.005675
      py      :     0.002658

 18 H s       :     0.827161  s :     0.827161
      pz      :     0.003673  p :     0.011203
      px      :     0.005800
      py      :     0.001730

 19 H s       :     0.855810  s :     0.855810
      pz      :     0.003411  p :     0.010763
      px      :     0.004310
      py      :     0.003042

 20 H s       :     0.858624  s :     0.858624
      pz      :     0.002531  p :     0.010671
      px      :     0.004816
      py      :     0.003324

 21 H s       :     0.859118  s :     0.859118
      pz      :     0.002009  p :     0.010761
      px      :     0.005701
      py      :     0.003052

 22 H s       :     0.839785  s :     0.839785
      pz      :     0.002431  p :     0.011408
      px      :     0.005844
      py      :     0.003132

 23 H s       :     0.829409  s :     0.829409
      pz      :     0.006449  p :     0.011434
      px      :     0.002649
      py      :     0.002335

 24 H s       :     0.858158  s :     0.858158
      pz      :     0.002493  p :     0.011215
      px      :     0.005911
      py      :     0.002812

 25 H s       :     0.829917  s :     0.829917
      pz      :     0.003721  p :     0.011309
      px      :     0.004341
      py      :     0.003248

 26 H s       :     0.830474  s :     0.830474
      pz      :     0.003716  p :     0.011311
      px      :     0.003921
      py      :     0.003674

 27 H s       :     0.857981  s :     0.857981
      pz      :     0.002588  p :     0.011214
      px      :     0.002285
      py      :     0.006342

 28 H s       :     0.828930  s :     0.828930
      pz      :     0.006328  p :     0.011444
      px      :     0.002335
      py      :     0.002780

 29 H s       :     0.836759  s :     0.836759
      pz      :     0.002421  p :     0.011410
      px      :     0.004242
      py      :     0.004747



                     *******************************
                     * LOEWDIN POPULATION ANALYSIS *
                     *******************************

----------------------
LOEWDIN ATOMIC CHARGES
----------------------
   0 C :    0.080683
   1 O :   -0.400206
   2 C :   -0.024307
   3 C :   -0.028131
   4 O :   -0.403888
   5 C :    0.082241
   6 O :   -0.399868
   7 C :   -0.025981
   8 C :   -0.030604
   9 O :   -0.413660
  10 C :   -0.203060
  11 C :   -0.246935
  12 C :   -0.246881
  13 C :   -0.201787
  14 H :    0.145462
  15 H :    0.157782
  16 H :    0.147926
  17 H :    0.142830
  18 H :    0.161491
  19 H :    0.147807
  20 H :    0.143577
  21 H :    0.147894
  22 H :    0.166963
  23 H :    0.169708
  24 H :    0.137820
  25 H :    0.158633
  26 H :    0.158620
  27 H :    0.137955
  28 H :    0.170011
  29 H :    0.167905

-------------------------------
LOEWDIN REDUCED ORBITAL CHARGES
-------------------------------
  0 C s       :     2.805309  s :     2.805309
      pz      :     0.915706  p :     2.894678
      px      :     0.966462
      py      :     1.012509
      dz2     :     0.039887  d :     0.219331
      dxz     :     0.049997
      dyz     :     0.045642
      dx2y2   :     0.027699
      dxy     :     0.056104

  1 O s       :     3.497590  s :     3.497590
      pz      :     1.570328  p :     4.838618
      px      :     1.594875
      py      :     1.673415
      dz2     :     0.014072  d :     0.063998
      dxz     :     0.011463
      dyz     :     0.014043
      dx2y2   :     0.008268
      dxy     :     0.016152

  2 C s       :     2.873555  s :     2.873555
      pz      :     1.063295  p :     3.022598
      px      :     0.965706
      py      :     0.993597
      dz2     :     0.016531  d :     0.128155
      dxz     :     0.022150
      dyz     :     0.035724
      dx2y2   :     0.019719
      dxy     :     0.034031

  3 C s       :     2.874040  s :     2.874040
      pz      :     0.962202  p :     3.026946
      px      :     0.980487
      py      :     1.084257
      dz2     :     0.023415  d :     0.127144
      dxz     :     0.034341
      dyz     :     0.021598
      dx2y2   :     0.033782
      dxy     :     0.014007

  4 O s       :     3.498461  s :     3.498461
      pz      :     1.632485  p :     4.842910
      px      :     1.461281
      py      :     1.749144
      dz2     :     0.009918  d :     0.062516
      dxz     :     0.021664
      dyz     :     0.009880
      dx2y2   :     0.009405
      dxy     :     0.011648

  5 C s       :     2.806651  s :     2.806651
      pz      :     0.903468  p :     2.894343
      px      :     1.032180
      py      :     0.958695
      dz2     :     0.039482  d :     0.216766
      dxz     :     0.043035
      dyz     :     0.052622
      dx2y2   :     0.025746
      dxy     :     0.055881

  6 O s       :     3.497668  s :     3.497668
      pz      :     1.583670  p :     4.838020
      px      :     1.737895
      py      :     1.516455
      dz2     :     0.014309  d :     0.064180
      dxz     :     0.013122
      dyz     :     0.011749
      dx2y2   :     0.010552
      dxy     :     0.014448

  7 C s       :     2.872753  s :     2.872753
      pz      :     1.068809  p :     3.023874
      px      :     1.071669
      py      :     0.883396
      dz2     :     0.018511  d :     0.129354
      dxz     :     0.027836
      dyz     :     0.026495
      dx2y2   :     0.026574
      dxy     :     0.029937

  8 C s       :     2.873627  s :     2.873627
      pz      :     0.987306  p :     3.028312
      px      :     1.107346
      py      :     0.933660
      dz2     :     0.026131  d :     0.128665
      dxz     :     0.013424
      dyz     :     0.036318
      dx2y2   :     0.015986
      dxy     :     0.036806

  9 O s       :     3.498808  s :     3.498808
      pz      :     1.662385  p :     4.853348
      px      :     1.849336
      py      :     1.341628
      dz2     :     0.008538  d :     0.061504
      dxz     :     0.005779
      dyz     :     0.025131
      dx2y2   :     0.009639
      dxy     :     0.012416

 10 C s       :     2.894640  s :     2.894640
      pz      :     1.088559  p :     3.231860
      px      :     1.077076
      py      :     1.066225
      dz2     :     0.017485  d :     0.076560
      dxz     :     0.010872
      dyz     :     0.012618
      dx2y2   :     0.016414
      dxy     :     0.019170

 11 C s       :     2.903865  s :     2.903865
      pz      :     1.082941  p :     3.263111
      px      :     1.113042
      py      :     1.067128
      dz2     :     0.020183  d :     0.079959
      dxz     :     0.013360
      dyz     :     0.015930
      dx2y2   :     0.016780
      dxy     :     0.013705

 12 C s       :     2.903778  s :     2.903778
      pz      :     1.082893  p :     3.263119
      px      :     1.072047
      py      :     1.108179
      dz2     :     0.019922  d :     0.079983
      dxz     :     0.017960
      dyz     :     0.011541
      dx2y2   :     0.018639
      dxy     :     0.011922

 13 C s       :     2.894061  s :     2.894061
      pz      :     1.085202  p :     3.231295
      px      :     1.081836
      py      :     1.064256
      dz2     :     0.016633  d :     0.076432
      dxz     :     0.008971
      dyz     :     0.015867
      dx2y2   :     0.013722
      dxy     :     0.021239

 14 H s       :     0.815969  s :     0.815969
      pz      :     0.009615  p :     0.038569
      px      :     0.016964
      py      :     0.011990

 15 H s       :     0.801729  s :     0.801729
      pz      :     0.016457  p :     0.040489
      px      :     0.008694
      py      :     0.015337

 16 H s       :     0.813091  s :     0.813091
      pz      :     0.006125  p :     0.038983
      px      :     0.005354
      py      :     0.027504

 17 H s       :     0.818545  s :     0.818545
      pz      :     0.008324  p :     0.038625
      px      :     0.021716
      py      :     0.008585

 18 H s       :     0.797514  s :     0.797514
      pz      :     0.013551  p :     0.040995
      px      :     0.022031
      py      :     0.005412

 19 H s       :     0.813549  s :     0.813549
      pz      :     0.011412  p :     0.038644
      px      :     0.016465
      py      :     0.010766

 20 H s       :     0.817734  s :     0.817734
      pz      :     0.008790  p :     0.038689
      px      :     0.018051
      py      :     0.011848

 21 H s       :     0.813310  s :     0.813310
      pz      :     0.006050  p :     0.038796
      px      :     0.022242
      py      :     0.010504

 22 H s       :     0.793043  s :     0.793043
      pz      :     0.007055  p :     0.039995
      px      :     0.022369
      py      :     0.010570

 23 H s       :     0.789907  s :     0.789907
      pz      :     0.025248  p :     0.040385
      px      :     0.008241
      py      :     0.006896

 24 H s       :     0.823030  s :     0.823030
      pz      :     0.007652  p :     0.039150
      px      :     0.022496
      py      :     0.009002

 25 H s       :     0.801150  s :     0.801150
      pz      :     0.013237  p :     0.040217
      px      :     0.015471
      py      :     0.011509

 26 H s       :     0.801165  s :     0.801165
      pz      :     0.013224  p :     0.040215
      px      :     0.014617
      py      :     0.012373

 27 H s       :     0.822908  s :     0.822908
      pz      :     0.008042  p :     0.039137
      px      :     0.006808
      py      :     0.024287

 28 H s       :     0.789574  s :     0.789574
      pz      :     0.024693  p :     0.040416
      px      :     0.006838
      py      :     0.008884

 29 H s       :     0.792036  s :     0.792036
      pz      :     0.007026  p :     0.040059
      px      :     0.015448
      py      :     0.017584



                      *****************************
                      * MAYER POPULATION ANALYSIS *
                      *****************************

  NA   - Mulliken gross atomic population
  ZA   - Total nuclear charge
  QA   - Mulliken gross atomic charge
  VA   - Mayer's total valence
  BVA  - Mayer's bonded valence
  FA   - Mayer's free valence

  ATOM       NA         ZA         QA         VA         BVA        FA
  0 C      6.0469     6.0000    -0.0469     4.2507     4.2507    -0.0000
  1 O      8.2649     8.0000    -0.2649     1.7291     1.7291    -0.0000
  2 C      5.9135     6.0000     0.0865     3.3222     3.3222    -0.0000
  3 C      5.8811     6.0000     0.1189     3.2550     3.2550     0.0000
  4 O      8.2820     8.0000    -0.2820     1.7192     1.7192     0.0000
  5 C      6.1086     6.0000    -0.1086     4.2486     4.2486     0.0000
  6 O      8.2689     8.0000    -0.2689     1.7216     1.7216    -0.0000
  7 C      5.9066     6.0000     0.0934     3.2953     3.2953    -0.0000
  8 C      5.8850     6.0000     0.1150     3.2823     3.2823    -0.0000
  9 O      8.2893     8.0000    -0.2893     1.6913     1.6913     0.0000
 10 C      6.4108     6.0000    -0.4108     3.4010     3.4010    -0.0000
 11 C      6.2808     6.0000    -0.2808     3.5942     3.5942    -0.0000
 12 C      6.2307     6.0000    -0.2307     3.5134     3.5134     0.0000
 13 C      6.5322     6.0000    -0.5322     3.4842     3.4842     0.0000
 14 H      0.8692     1.0000     0.1308     0.9447     0.9447    -0.0000
 15 H      0.8435     1.0000     0.1565     0.9350     0.9350    -0.0000
 16 H      0.8697     1.0000     0.1303     0.9409     0.9409     0.0000
 17 H      0.8700     1.0000     0.1300     0.9420     0.9420     0.0000
 18 H      0.8384     1.0000     0.1616     0.9338     0.9338    -0.0000
 19 H      0.8666     1.0000     0.1334     0.9457     0.9457    -0.0000
 20 H      0.8693     1.0000     0.1307     0.9404     0.9404    -0.0000
 21 H      0.8699     1.0000     0.1301     0.9439     0.9439    -0.0000
 22 H      0.8512     1.0000     0.1488     0.9470     0.9470    -0.0000
 23 H      0.8408     1.0000     0.1592     0.9421     0.9421    -0.0000
 24 H      0.8694     1.0000     0.1306     0.9439     0.9439    -0.0000
 25 H      0.8412     1.0000     0.1588     0.9374     0.9374    -0.0000
 26 H      0.8418     1.0000     0.1582     0.9378     0.9378     0.0000
 27 H      0.8692     1.0000     0.1308     0.9440     0.9440     0.0000
 28 H      0.8404     1.0000     0.1596     0.9420     0.9420     0.0000
 29 H      0.8482     1.0000     0.1518     0.9462     0.9462     0.0000

  Mayer bond orders larger than 0.100000
B(  0-C ,  1-O ) :   1.8035 B(  0-C ,  4-O ) :   1.4377 B(  0-C ,  5-C ) :   0.6688 
B(  0-C ,  6-O ) :  -0.1931 B(  0-C , 13-C ) :   0.8685 B(  0-C , 29-H ) :  -0.1280 
B(  1-O ,  2-C ) :   0.7175 B(  1-O ,  5-C ) :  -0.2080 B(  1-O , 11-C ) :  -0.1414 
B(  1-O , 13-C ) :  -0.5286 B(  2-C ,  3-C ) :   0.8155 B(  2-C , 14-H ) :   0.9926 
B(  2-C , 15-H ) :   0.9992 B(  3-C ,  4-O ) :   0.6487 B(  3-C , 16-H ) :   1.0165 
B(  3-C , 17-H ) :   0.9799 B(  4-O , 13-C ) :  -0.1360 B(  5-C ,  6-O ) :   1.8019 
B(  5-C ,  9-O ) :   1.4703 B(  5-C , 10-C ) :   0.8421 B(  5-C , 22-H ) :  -0.1069 
B(  6-O ,  7-C ) :   0.7135 B(  6-O , 10-C ) :  -0.5336 B(  6-O , 11-C ) :   0.1008 
B(  6-O , 12-C ) :  -0.1532 B(  7-C ,  8-C ) :   0.8281 B(  7-C , 18-H ) :   0.9861 
B(  7-C , 19-H ) :   0.9978 B(  8-C ,  9-O ) :   0.6454 B(  8-C , 20-H ) :   0.9770 
B(  8-C , 21-H ) :   1.0028 B(  9-O , 10-C ) :  -0.1796 B( 10-C , 11-C ) :   0.8628 
B( 10-C , 13-C ) :   0.1735 B( 10-C , 22-H ) :   1.0828 B( 10-C , 23-H ) :   1.0419 
B( 11-C , 12-C ) :   0.9189 B( 11-C , 24-H ) :   0.9801 B( 11-C , 25-H ) :   1.0016 
B( 12-C , 13-C ) :   0.8299 B( 12-C , 26-H ) :   0.9950 B( 12-C , 27-H ) :   0.9777 
B( 13-C , 28-H ) :   1.0325 B( 13-C , 29-H ) :   1.1116 

-------
TIMINGS
-------

Total SCF time: 0 days 0 hours 1 min 59 sec 

Total time                  ....     119.731 sec
Sum of individual times     ....     119.705 sec  (100.0%)

SCF preparation             ....       0.064 sec  (  0.1%)
Fock matrix formation       ....     119.348 sec  ( 99.7%)
  Startup                   ....       0.004 sec  (  0.0% of F)
  Split-RI-J                ....       7.953 sec  (  6.7% of F)
  Chain of spheres X        ....      96.788 sec  ( 81.1% of F)
  XC integration            ....      14.544 sec  ( 12.2% of F)
    XC Preparation          ....       0.000 sec  (  0.0% of XC)
    Basis function eval.    ....       4.834 sec  ( 33.2% of XC)
    Density eval.           ....       3.201 sec  ( 22.0% of XC)
    XC-Functional eval.     ....       0.270 sec  (  1.9% of XC)
    XC-Potential eval.      ....       5.646 sec  ( 38.8% of XC)
Diagonalization             ....       0.000 sec  (  0.0%)
Density matrix formation    ....       0.014 sec  (  0.0%)
Total Energy calculation    ....       0.030 sec  (  0.0%)
Population analysis         ....       0.010 sec  (  0.0%)
Orbital Transformation      ....       0.020 sec  (  0.0%)
Orbital Orthonormalization  ....       0.000 sec  (  0.0%)
DIIS solution               ....       0.159 sec  (  0.1%)
SOSCF solution              ....       0.060 sec  (  0.0%)
Finished LeanSCF after 119.8 sec

Maximum memory used throughout the entire LEANSCF-calculation: 52.6 MB

------------------------------------------------------------------------------
                         ORCA PROPERTY INTEGRAL CALCULATIONS
------------------------------------------------------------------------------

GBWName                                   ... nmr.gbw
Number of atoms                           ...     30
Number of basis functions                 ...    332
Max core memory                           ...   1024 MB

Dipole integrals                          ... YES
Quadrupole integrals                      ...  NO
Linear momentum integrals                 ...  NO
Angular momentum integrals                ...  NO
Higher moments length integrals           ...  NO
Higher moments velocity integrals         ...  NO
Kinetic energy integrals                  ...  NO
GIAO right hand sides                     ... YES
GIAO dipole derivative integrals          ...  NO
SOC integrals                             ...  NO
EPR diamagnetic integrals (GIAO)          ...  NO
EPR gauge integrals                       ...  NO
Field gradient integrals                  ...  NO (   0 nuclei)
Spin-dipole/Fermi contact integrals       ...  NO (   0 nuclei)
Contact density integrals                 ...  NO (   0 nuclei)
Nucleus-orbit integrals                   ...  NO (   0 nuclei)
Geometric perturbations                   ...  NO (  30 nuclei)

Choice of electric origin   ... Center of mass
Position of electric origin ... ( -0.1204,  0.1163, -0.0070) 
Choice of magnetic origin   ... GIAO
Position of magnetic origin ... (  0.0000,  0.0000,  0.0000) 

Calculating integrals                     ... Electric Dipole (Length)     done (  0.0 sec)

Calculating integrals                     ... GIAO Right Hand Sides
     -> RIJCOSX used in SCF. Same chosen for GIAO calculation.
  One-electron GIAO integrals (SHARK)     ... done (  0.1 sec)
  Calculating G(B)[P]                     ... (RI-J: SHARK-ok) (COSX-ok) (add-J+K:ok) => dG/dB done ( 21.8 sec)
  DFT XC-terms                            ... done ( 31.3 sec)
  Extracting occupied and virtual blocks  ... 
  Operator  0  NO=  54 NV= 278 
  Transforming and RHS contribution       ... done
  Adding eps_i * S(B)_ai terms            ... done
  Projecting overlap derivatives          ... done (  0.0 sec)
  Building G[dS/dB_ij] (COSX)             ... done (  4.6 sec)
  Transforming to MO basis                ... done
  Summing G[dS/dB_ij] into RHS contribs.  ... done
  GIAO Right hand sides done ( 57.7 sec)


Property integrals calculated in  57.8 sec

Maximum memory used throughout the entire PROPINT-calculation: 70.9 MB

-------------------------   --------------------
FINAL SINGLE POINT ENERGY      -691.193481814590
-------------------------   --------------------

------------------------------------------------------------------------------
                            ORCA SCF RESPONSE CALCULATION
------------------------------------------------------------------------------

GBWName                                 ... nmr.gbw
Number of atoms                         ...     30
Number of basis functions               ...    332
Max core memory                         ...   1024 MB

Electric field perturbation             ...  NO
Quadrupolar field perturbation          ...  NO
Magnetic field perturbation (no GIAO)   ...  NO
Magnetic field perturbation (with GIAO) ... YES
Linear momentum (velocity) perturbation ...  NO
Spin-orbit coupling perturbation        ...  NO
Choice of electric origin               ... Center of mass
Position of electric origin             ...    -0.120450     0.116332    -0.006985
Choice of magnetic origin               ... GIAO
Position of magnetic origin             ...     0.000000     0.000000     0.000000
Nuclear geometric perturbations         ...  NO (  90 perturbations)
Nucleus-orbit perturbations             ...  NO (   0 perturbations)
Spin-dipole/Fermi contact perturbations ...  NO (   0 perturbations)

Total number of real perturbations      ...      0
Total number of imaginary perturbations ...      3
Total number of triplet perturbations   ...      0
Total number of SOC perturbations       ...      0


                              ***************************
                              * IMAGINARY PERTURBATIONS *
                              ***************************



-------------------
SHARK CP-SCF DRIVER
-------------------

Dimension of the orbital basis          ...    332
Dimension of the CPSCF-problem          ...  15012
Number of operators                     ...      1
Max. number of iterations               ...    128
Convergence Tolerance                   ... 1.0e-03
Number of perturbations                 ...      3
Perturbation type                       ... IMAGINARY

----------------------------
POPLE LINEAR EQUATION SOLVER
----------------------------

  ITERATION   0:   ||err||_max =   7.1897e-01 (   3.6 sec   0/  3 done)
  ITERATION   1:   ||err||_max =   1.8201e-02 (   3.4 sec   0/  3 done)
  ITERATION   2:   ||err||_max =   9.7184e-04 (   3.4 sec   3/  3 done)

CP-SCF equations solved in  10.5 sec
Response densities calculated in   0.0 sec

Maximum memory used throughout the entire SCFRESP-calculation: 55.6 MB

------------------------------------------------------------------------------
                              ORCA PROPERTY CALCULATIONS
------------------------------------------------------------------------------

GBWName                                 ... nmr.gbw
Number of atoms                         ...     30
Number of basis functions               ...    332
Max core memory                         ...   1024 MB

Electric properties:
Dipole moment                           ... YES
Quadrupole moment                       ...  NO
Static polarizability (Dipole/Dipole)   ...  NO
Static polarizability (Dipole/Quad.)    ...  NO
Static polarizability (Quad./Quad.)     ...  NO
Static polarizability (Velocity)        ...  NO

Atomic electric properties:
Dipole moment                           ...  NO
Quadrupole moment                       ...  NO
Static polarizability                   ...  NO

Choice of electric origin               ... Center of mass
Position of electric origin             ...    -0.120450     0.116332    -0.006985

General magnetic properties:
Magnetizability                         ...  NO

EPR properties:
g-Tensor (aka g-matrix)                 ...  NO
Zero-Field splitting spin-orbit         ...  NO
Zero-field splitting spin-spin          ...  NO
Hyperfine couplings                     ...  NO (   0 nuclei)
Quadrupole couplings                    ...  NO (   0 nuclei)
Contact density                         ...  NO (   0 nuclei)

NMR properties:
Chemical shifts                         ... YES (  30 nuclei)
Spin-rotation constants                 ...  NO (   0 nuclei)
Spin-spin couplings                     ...  NO (   0 nuclei,    0 pairs)

Choice of magnetic origin               ... GIAO
Position of magnetic origin             ...     0.000000     0.000000     0.000000

Properties with geometric perturbations:
SCF Hessian                             ...  NO
IR spectrum                             ...  NO
VCD spectrum                            ...  NO
X-ray spectroscopy properties:
SCF XES/XAS/RIXS spectra                ...  NO


-------------
DIPOLE MOMENT
-------------

Method             : SCF
Type of density    : Electron Density
Multiplicity       :   1
Irrep              :   0
Energy             :  -691.1934818145895179 Eh
Relativity type    : 
Basis              : AO
                                X                 Y                 Z
Electronic contribution:     -1.903349692       2.060715039      -0.078578685
Nuclear contribution   :      1.562031131      -1.421908172       0.118097653
                        -----------------------------------------
Total Dipole Moment    :     -0.341318560       0.638806867       0.039518968
                        -----------------------------------------
Magnitude (a.u.)       :      0.725351171
Magnitude (Debye)      :      1.843696156



--------------------
Rotational spectrum 
--------------------
 
Rotational constants in cm-1:             0.031197             0.027760             0.020452 
Rotational constants in MHz :           935.259810           832.231674           613.146833 

Dipole components along the rotational axes: 
x,y,z [a.u.] :    -0.720574     0.075301     0.035178 
x,y,z [Debye]:    -1.831553     0.191399     0.089415 

 

Dipole moment calculation done in   0.0 sec 
GIAO: Analytic para- and diamagnetic shielding integrals (SHARK)       ... done (  1.4 sec)
-------------------
CHEMICAL SHIELDINGS (ppm)
-------------------

Method             : SCF
Type of density    : Electron Density
Type of derivative : Magnetic Field (with GIAOs) (Direction=X)
Multiplicity       :   1
Irrep              :   0
Relativity type    : 
Basis              : AO
 --------------
 Nucleus   0C :
 --------------

Diamagnetic contribution to the shielding tensor (ppm) : 
           255.877        -16.140        -4.478
             5.134        254.478        -3.635
             1.353         -2.905       252.763

Paramagnetic contribution to the shielding tensor (ppm): 
          -178.406          2.809        -3.530
           -14.166       -180.506       -21.003
             7.229        -19.463      -165.007

Total shielding tensor (ppm): 
            77.471        -13.331        -8.008
            -9.032         73.971       -24.639
             8.582        -22.368        87.756


 Diagonalized sT*s matrix:
 
 sDSO           247.815          257.550          257.754  iso=     254.373
 sPSO          -194.651         -178.559         -150.710  iso=    -174.640
        ---------------  ---------------  ---------------
 Total           53.163           78.991          107.044  iso=      79.733

 Orientation: 
  X          -0.3925380   -0.8805358    0.2656514
  Y          -0.7765628    0.1625435   -0.6087117
  Z          -0.4928125    0.4452375    0.7475958

 --------------
 Nucleus   1O :
 --------------

Diamagnetic contribution to the shielding tensor (ppm) : 
           404.153        -13.883       -38.546
            21.572        400.662       -23.797
           -43.136         -0.242       416.093

Paramagnetic contribution to the shielding tensor (ppm): 
          -182.717          7.267         2.370
           -36.342       -198.255       -50.411
            19.769        -71.813      -151.941

Total shielding tensor (ppm): 
           221.436         -6.616       -36.176
           -14.770        202.407       -74.208
           -23.367        -72.055       264.152


 Diagonalized sT*s matrix:
 
 sDSO           382.951          402.375          435.582  iso=     406.969
 sPSO          -237.729         -176.156         -119.028  iso=    -177.638
        ---------------  ---------------  ---------------
 Total          145.223          226.218          316.553  iso=     229.331

 Orientation: 
  X           0.3238387    0.9270928   -0.1887523
  Y           0.7720972   -0.3742659   -0.5136058
  Z           0.5468038   -0.0205903    0.8370075

 --------------
 Nucleus   2C :
 --------------

Diamagnetic contribution to the shielding tensor (ppm) : 
           237.684         -5.167       -15.613
            -6.286        235.627        -1.356
           -19.163          3.436       231.403

Paramagnetic contribution to the shielding tensor (ppm): 
           -98.584        -35.402        -1.112
           -32.872       -114.776         9.936
             5.024         -0.641      -116.872

Total shielding tensor (ppm): 
           139.100        -40.570       -16.726
           -39.158        120.852         8.580
           -14.138          2.795       114.531


 Diagonalized sT*s matrix:
 
 sDSO           226.289          229.473          248.951  iso=     234.905
 sPSO          -138.336         -117.865          -74.030  iso=    -110.077
        ---------------  ---------------  ---------------
 Total           87.953          111.608          174.921  iso=     124.827

 Orientation: 
  X           0.6430946   -0.0614482   -0.7633174
  Y           0.7335483    0.3356022    0.5909976
  Z           0.2198552   -0.9399975    0.2608991

 --------------
 Nucleus   3C :
 --------------

Diamagnetic contribution to the shielding tensor (ppm) : 
           247.210        -12.632        -7.840
           -12.271        222.093         5.070
            -5.653          6.437       225.114

Paramagnetic contribution to the shielding tensor (ppm): 
          -108.310         -6.488       -25.573
            -4.827       -119.829        -0.172
           -30.404         -3.559       -89.315

Total shielding tensor (ppm): 
           138.900        -19.120       -33.413
           -17.097        102.264         4.898
           -36.057          2.877       135.799


 Diagonalized sT*s matrix:
 
 sDSO           220.233          225.628          248.556  iso=     231.472
 sPSO          -129.196         -115.275          -72.983  iso=    -105.818
        ---------------  ---------------  ---------------
 Total           91.037          110.353          175.573  iso=     125.655

 Orientation: 
  X           0.5482051   -0.4122430   -0.7276859
  Y           0.7524323    0.6229591    0.2139339
  Z           0.3651258   -0.6648141    0.6516943

 --------------
 Nucleus   4O :
 --------------

Diamagnetic contribution to the shielding tensor (ppm) : 
           424.823        -25.786         6.014
           -15.594        371.902        -0.978
            23.897         -6.336       397.487

Paramagnetic contribution to the shielding tensor (ppm): 
          -177.459        -35.757         1.877
           -23.846       -176.794       -67.539
           -14.294        -60.115      -110.118

Total shielding tensor (ppm): 
           247.364        -61.543         7.891
           -39.439        195.108       -68.517
             9.603        -66.451       287.369


 Diagonalized sT*s matrix:
 
 sDSO           372.155          408.837          413.220  iso=     398.071
 sPSO          -229.200         -157.361          -77.811  iso=    -154.790
        ---------------  ---------------  ---------------
 Total          142.955          251.477          335.409  iso=     243.280

 Orientation: 
  X           0.4017746   -0.8420637    0.3598692
  Y           0.8382658    0.1799997   -0.5146945
  Z           0.3686292    0.5084573    0.7781926

 --------------
 Nucleus   5C :
 --------------

Diamagnetic contribution to the shielding tensor (ppm) : 
           253.452          5.113        -5.093
[...]
            -0.043         -2.840         1.659
            -1.049          1.750         1.421
            -5.174          6.760         0.579

Total shielding tensor (ppm): 
            26.811         -0.085         3.506
            -1.939         26.674        -3.651
             2.481         -2.753        27.623


 Diagonalized sT*s matrix:
 
 sDSO            17.317           26.985           34.519  iso=      26.274
 sPSO             5.983           -1.245           -2.451  iso=       0.762
        ---------------  ---------------  ---------------
 Total           23.300           25.740           32.068  iso=      27.036

 Orientation: 
  X          -0.4691787    0.7275004    0.5006141
  Y           0.5338735    0.6852231   -0.4954275
  Z           0.7034561   -0.0348206    0.7098853

 --------------
 Nucleus  19H :
 --------------

Diamagnetic contribution to the shielding tensor (ppm) : 
            28.833          5.406        -5.322
             6.695         30.110        -7.382
            -4.875        -12.019        27.108

Paramagnetic contribution to the shielding tensor (ppm): 
            -3.124         -4.242         2.857
            -3.832         -0.062         2.478
             2.376          8.669         0.038

Total shielding tensor (ppm): 
            25.709          1.163        -2.465
             2.863         30.048        -4.904
            -2.499         -3.350        27.145


 Diagonalized sT*s matrix:
 
 sDSO            21.327           22.277           42.447  iso=      28.684
 sPSO             2.240            2.952           -8.341  iso=      -1.049
        ---------------  ---------------  ---------------
 Total           23.567           25.229           34.106  iso=      27.634

 Orientation: 
  X           0.5998597    0.7157542   -0.3575812
  Y           0.2919579   -0.6119135   -0.7350663
  Z           0.7449355   -0.3365380    0.5760324

 --------------
 Nucleus  20H :
 --------------

Diamagnetic contribution to the shielding tensor (ppm) : 
            23.560          8.196         2.716
             7.707         35.401         3.356
             2.373          3.206        19.874

Paramagnetic contribution to the shielding tensor (ppm): 
             1.951         -2.947        -1.076
            -2.598         -2.774        -2.264
            -2.273         -3.274         5.169

Total shielding tensor (ppm): 
            25.511          5.249         1.640
             5.110         32.627         1.093
             0.100         -0.068        25.044


 Diagonalized sT*s matrix:
 
 sDSO            19.247           19.596           39.992  iso=      26.278
 sPSO             3.417            5.500           -4.570  iso=       1.449
        ---------------  ---------------  ---------------
 Total           22.664           25.096           35.422  iso=      27.727

 Orientation: 
  X           0.8732641   -0.1445817    0.4653019
  Y          -0.4383642    0.1837687    0.8798101
  Z          -0.2127124   -0.9722784    0.0970992

 --------------
 Nucleus  21H :
 --------------

Diamagnetic contribution to the shielding tensor (ppm) : 
            26.431         -7.866         2.710
            -9.811         35.422        -1.812
             1.263          0.593        13.713

Paramagnetic contribution to the shielding tensor (ppm): 
             0.674          5.653        -3.696
             6.579         -3.295         1.425
            -0.450         -2.193        10.283

Total shielding tensor (ppm): 
            27.105         -2.212        -0.986
            -3.232         32.127        -0.387
             0.813         -1.600        23.996


 Diagonalized sT*s matrix:
 
 sDSO            14.714           20.307           40.544  iso=      25.189
 sPSO             9.095            5.714           -7.146  iso=       2.554
        ---------------  ---------------  ---------------
 Total           23.809           26.021           33.398  iso=      27.743

 Orientation: 
  X           0.1847093    0.8958522   -0.4041427
  Y           0.1644751    0.3772415    0.9113928
  Z           0.9689326   -0.2348142   -0.0776653

 --------------
 Nucleus  22H :
 --------------

Diamagnetic contribution to the shielding tensor (ppm) : 
            36.031          4.122        -0.315
            -1.277         29.882        -0.033
             5.502          1.322        32.542

Paramagnetic contribution to the shielding tensor (ppm): 
            -2.354         -2.647         2.691
             2.495          0.423        -0.714
            -2.470         -1.250        -6.531

Total shielding tensor (ppm): 
            33.676          1.475         2.376
             1.218         30.305        -0.748
             3.032          0.073        26.011


 Diagonalized sT*s matrix:
 
 sDSO            31.353           29.672           37.430  iso=      32.818
 sPSO            -6.304            0.426           -2.585  iso=      -2.821
        ---------------  ---------------  ---------------
 Total           25.049           30.098           34.845  iso=      29.997

 Orientation: 
  X          -0.3115037   -0.2031818   -0.9282686
  Y           0.1476217    0.9546658   -0.2584978
  Z           0.9387083   -0.2175556   -0.2673879

 --------------
 Nucleus  23H :
 --------------

Diamagnetic contribution to the shielding tensor (ppm) : 
            28.811         -2.442         5.349
            -1.825         23.732         3.167
            -1.410          1.750        41.052

Paramagnetic contribution to the shielding tensor (ppm): 
            -2.346          1.348        -3.871
             0.418          4.621        -2.572
             2.191         -1.130        -7.521

Total shielding tensor (ppm): 
            26.465         -1.094         1.477
            -1.407         28.353         0.595
             0.781          0.620        33.531


 Diagonalized sT*s matrix:
 
 sDSO            25.551           26.460           41.585  iso=      31.199
 sPSO             0.084            2.516           -7.846  iso=      -1.749
        ---------------  ---------------  ---------------
 Total           25.635           28.976           33.739  iso=      29.450

 Orientation: 
  X           0.8822357    0.4514251    0.1336995
  Y           0.4445058   -0.8922452    0.0794544
  Z          -0.1551604    0.0106673    0.9878317

 --------------
 Nucleus  24H :
 --------------

Diamagnetic contribution to the shielding tensor (ppm) : 
            33.252         -6.792         0.931
            -7.869         27.466        -3.360
             5.722         -2.269        24.723

Paramagnetic contribution to the shielding tensor (ppm): 
             0.125          2.248         2.591
             2.859          2.591         2.684
            -2.070          1.443         2.556

Total shielding tensor (ppm): 
            33.377         -4.543         3.522
            -5.010         30.056        -0.676
             3.652         -0.825        27.278


 Diagonalized sT*s matrix:
 
 sDSO            23.475           22.483           39.482  iso=      28.480
 sPSO             1.538            5.357           -1.623  iso=       1.757
        ---------------  ---------------  ---------------
 Total           25.013           27.839           37.859  iso=      30.237

 Orientation: 
  X           0.5446831    0.2504582    0.8003693
  Y           0.4123187    0.7510769   -0.5156324
  Z          -0.7302833    0.6108635    0.3058303

 --------------
 Nucleus  25H :
 --------------

Diamagnetic contribution to the shielding tensor (ppm) : 
            27.940         -0.856        -0.344
             0.767         28.482        -5.237
            -3.747         -2.630        29.315

Paramagnetic contribution to the shielding tensor (ppm): 
            -0.299          0.944        -0.919
            -0.194          2.829         1.419
             1.997         -1.071         0.946

Total shielding tensor (ppm): 
            27.641          0.089        -1.263
             0.573         31.310        -3.819
            -1.751         -3.701        30.261


 Diagonalized sT*s matrix:
 
 sDSO            24.682           27.963           33.092  iso=      28.579
 sPSO             1.593            0.176            1.707  iso=       1.159
        ---------------  ---------------  ---------------
 Total           26.274           28.138           34.800  iso=      29.737

 Orientation: 
  X           0.6102320    0.7718681   -0.1784278
  Y           0.4456699   -0.5206759   -0.7281998
  Z           0.6549772   -0.3648509    0.6617315

 --------------
 Nucleus  26H :
 --------------

Diamagnetic contribution to the shielding tensor (ppm) : 
            28.296          0.831        -5.270
            -0.594         27.953         0.846
            -3.308         -2.527        28.916

Paramagnetic contribution to the shielding tensor (ppm): 
             2.637         -1.089         1.186
            -0.086         -0.102        -1.157
            -0.817          1.729         1.569

Total shielding tensor (ppm): 
            30.932         -0.258        -4.084
            -0.681         27.852        -0.311
            -4.125         -0.798        30.486


 Diagonalized sT*s matrix:
 
 sDSO            24.566           27.713           32.886  iso=      28.388
 sPSO             1.700            0.470            1.934  iso=       1.368
        ---------------  ---------------  ---------------
 Total           26.266           28.183           34.820  iso=      29.756

 Orientation: 
  X           0.6222716    0.2929303   -0.7259269
  Y           0.4153173   -0.9096097   -0.0110371
  Z           0.6635432    0.2946219    0.6876833

 --------------
 Nucleus  27H :
 --------------

Diamagnetic contribution to the shielding tensor (ppm) : 
            24.074         -4.764        -3.703
            -4.065         35.889         2.491
            -0.621          7.312        24.690

Paramagnetic contribution to the shielding tensor (ppm): 
             3.771          1.405         3.815
             1.191         -0.643         1.555
             0.634         -3.065         2.949

Total shielding tensor (ppm): 
            27.845         -3.359         0.112
            -2.874         35.246         4.046
             0.014          4.248        27.639


 Diagonalized sT*s matrix:
 
 sDSO            23.155           22.218           39.280  iso=      28.218
 sPSO             1.864            5.615           -1.402  iso=       2.026
        ---------------  ---------------  ---------------
 Total           25.019           27.833           37.878  iso=      30.243

 Orientation: 
  X           0.5175092    0.8114044   -0.2716748
  Y           0.4490676    0.0127183    0.8934073
  Z          -0.7283698    0.5843468    0.3577935

 --------------
 Nucleus  28H :
 --------------

Diamagnetic contribution to the shielding tensor (ppm) : 
            23.527          0.109         6.141
            -0.391         29.700         3.366
             1.742         -2.605        41.025

Paramagnetic contribution to the shielding tensor (ppm): 
             4.022         -1.919        -5.006
            -1.064         -2.535        -2.348
            -0.744          3.067        -7.439

Total shielding tensor (ppm): 
            27.549         -1.810         1.135
            -1.455         27.166         1.018
             0.998          0.462        33.585


 Diagonalized sT*s matrix:
 
 sDSO            26.176           26.288           41.789  iso=      31.417
 sPSO            -0.660            2.695           -7.987  iso=      -1.984
        ---------------  ---------------  ---------------
 Total           25.516           28.983           33.801  iso=      29.433

 Orientation: 
  X           0.6692899    0.7280757    0.1481784
  Y           0.7275232   -0.6826774    0.0682753
  Z          -0.1508676   -0.0621072    0.9866011

 --------------
 Nucleus  29H :
 --------------

Diamagnetic contribution to the shielding tensor (ppm) : 
            31.551          0.640         0.185
             5.007         34.474        -1.145
             3.574          4.684        33.392

Paramagnetic contribution to the shielding tensor (ppm): 
            -0.334          1.547        -0.366
            -2.693         -1.928         3.762
            -2.830         -1.642        -7.155

Total shielding tensor (ppm): 
            31.217          2.187        -0.182
             2.313         32.547         2.617
             0.744          3.042        26.237


 Diagonalized sT*s matrix:
 
 sDSO            32.438           29.682           37.297  iso=      33.139
 sPSO            -7.337            0.276           -2.356  iso=      -3.139
        ---------------  ---------------  ---------------
 Total           25.101           29.958           34.941  iso=      30.000

 Orientation: 
  X           0.1044234   -0.8509578   -0.5147490
  Y          -0.3763313    0.4452831   -0.8124640
  Z           0.9205816    0.2785564   -0.2737441



--------------------------------
CHEMICAL SHIELDING SUMMARY (ppm)
--------------------------------


  Nucleus  Element    Isotropic     Anisotropy
  -------  -------  ------------   ------------
      0       C           79.733         40.967 
      1       O          229.331        130.833 
      2       C          124.827         75.140 
      3       C          125.655         74.878 
      4       O          243.280        138.194 
      5       C           79.117         40.483 
      6       O          228.013        115.667 
      7       C          124.904         72.509 
      8       C          126.375         70.265 
      9       O          246.748        137.809 
     10       C          155.435         29.629 
     11       C          168.590          9.062 
     12       C          168.773          8.779 
     13       C          155.972         28.850 
     14       H           27.574          9.962 
     15       H           27.139          7.614 
     16       H           27.707          7.890 
     17       H           27.654         11.159 
     18       H           27.036          7.548 
     19       H           27.634          9.708 
     20       H           27.727         11.542 
     21       H           27.743          8.483 
     22       H           29.997          7.271 
     23       H           29.450          6.434 
     24       H           30.237         11.432 
     25       H           29.737          7.593 
     26       H           29.756          7.595 
     27       H           30.243         11.451 
     28       H           29.433          6.552 
     29       H           30.000          7.412 


NMR shielding tensor and spin rotation calculation done in   1.4 sec 

Maximum memory used throughout the entire PROP-calculation: 28.4 MB

--------------------------------
SUGGESTED CITATIONS FOR THIS RUN
--------------------------------

Below you find a list of papers that are relevant to this ORCA run
We neither can nor want to force you to cite these papers, but we appreciate if you do
You receive ORCA, which is the product of decades of hard work by many enthusiastic individuals, for free
The only thing we kindly ask in return is that you cite our papers,
We deeply appreciate it, if you show your appreciation for ORCA by not just citing the generic ORCA reference.

Please note that relegating all ORCA citations to the supporting information does *not* help us.
SI sections are not indexed - citations you put there will not count into any citation statistics
But we need these citations in order to attract the funding resources that allow us to do what we are doing

Therefore, if you are a happy ORCA user, please consider citing a few of the papers listed below in the main body of your paper

In addition to the list printed below, the program has created the file nmr.bibtex that contains the list in bibtex format
You can import this file easily into all common literature databanks and citation aid programs


List of essential papers. We consider these as the minimum necessary citations

  1. Neese,F.
     Software update: the ORCA program system, version 5.0
     WIRES Comput. Molec. Sci., 2022 12(1)e1606
     doi.org/10.1002/wcms.1606

List of papers to cite with high priority. The work reported in these papers was absolutely
necessary for this run to complete.
Our perspective: the developers of density functionals and basis sets usually get cited in chemistry papers
Good! But without the algorithms to do something with them, the functionals or basis sets would not do anything.
Hence, in our opinion, the algorithm design and method developments papers are equally worthy of getting cited

  1. Neese,F.
     An improvement of the resolution of the identity approximation for the formation of the Coulomb matrix
     J. Comp. Chem., 2003 24(14)1740-1747
     doi.org/10.1002/jcc.10318
  2. Neese,F.; Wennmohs,F.; Hansen,A.; Becker,U.
     Efficient, approximate and parallel Hartree-Fock and hybrid DFT calculations. A 'chain-of-spheres' algorithm for the Hartree-Fock exchange
     Chem. Phys., 2009 356(1-3)98-109
     doi.org/10.1016/j.chemphys.2008.10.036
  3. Stoychev,G.L.; Auer,A.A.; Izsak,R.; Neese,F.
     Self-Consistent Field Calculation of Nuclear Magnetic Resonance Chemical Shielding Constants Using Gauge-Including Atomic Orbitals and Approximate Two-Electron Integrals
     J. Chem. Theory Comput., 2018 14(2)619-637
     doi.org/10.1021/acs.jctc.7b01006
  4. Helmich-Paris,B.; de Souza,B.; Neese,F.; Izsák,R.
     An improved chain of spheres for exchange algorithm
     J. Chem. Phys., 2021 155 104109
     doi.org/doi: 10.1063/5.0058766.
  5. Neese,F.
     The SHARK Integral Generation and Digestion System
     J. Comp. Chem., 2022  1-16
     doi.org/10.1002/jcc.26942

List of suggested additional citations. These are papers that are important in the 'surrounding' of 
of this run, or papers that preceded the highly important papers. If you like your results we are grateful for a citation.

  1. Izsak,R.; Neese,F.
     An overlap fitted chain of spheres exchange method
     J. Chem. Phys., 2011 135 144105
     doi.org/10.1063/1.3646921
  2. Izsak,R.; Hansen,A.; Neese,F.
     The resolution of identity and chain of spheres approximations for the LPNO-CCSD singles Fock term
     Molec. Phys., 2012 110 2413-2417
     doi.org/10.1080/00268976.2012.687466
  3. Neese,F.
     The ORCA program system
     WIRES Comput. Molec. Sci., 2012 2(1)73-78
     doi.org/10.1002/wcms.81
  4. Izsak,R.; Neese,F.; Klopper,W.
     Robust fitting techniques in the chain of spheres approximation to the Fock exchange: The role of the complementary space
     J. Chem. Phys., 2013 139 
     doi.org/10.1063/1.4819264
  5. Neese,F.
     Software update: the ORCA program system, version 4.0
     WIRES Comput. Molec. Sci., 2018 8(1)1-6
     doi.org/10.1002/wcms.1327
  6. Neese,F.; Wennmohs,F.; Becker,U.; Riplinger,C.
     The ORCA quantum chemistry program package
     J. Chem. Phys., 2020 152 Art. No. L224108
     doi.org/10.1063/5.0004608

List of optional additional citations

  1. Neese,F.
     Approximate second-order SCF convergence for spin unrestricted wavefunctions
     Chem. Phys. Lett., 2000 325(1-3)93-98
     doi.org/10.1016/s0009-2614(00)00662-x

Timings for individual modules:

Sum of individual times          ...      193.888 sec (=   3.231 min)
Startup calculation              ...        2.468 sec (=   0.041 min)   1.3 %
SCF iterations                   ...      121.070 sec (=   2.018 min)  62.4 %
Property integrals               ...       57.951 sec (=   0.966 min)  29.9 %
SCF Response                     ...       10.942 sec (=   0.182 min)   5.6 %
Property calculations            ...        1.457 sec (=   0.024 min)   0.8 %
                             ****ORCA TERMINATED NORMALLY****
TOTAL RUN TIME: 0 days 0 hours 3 minutes 14 seconds 28 msec
