
                                 *****************
                                 * O   R   C   A *
                                 *****************

                                            #,                                       
                                            ###                                      
                                            ####                                     
                                            #####                                    
                                            ######                                   
                                           ########,                                 
                                     ,,################,,,,,                         
                               ,,#################################,,                 
                          ,,##########################################,,             
                       ,#########################################, ''#####,          
                    ,#############################################,,   '####,        
                  ,##################################################,,,,####,       
                ,###########''''           ''''###############################       
              ,#####''   ,,,,##########,,,,          '''####'''          '####       
            ,##' ,,,,###########################,,,                        '##       
           ' ,,###''''                  '''############,,,                           
         ,,##''                                '''############,,,,        ,,,,,,###''
      ,#''                                            '''#######################'''  
     '                                                          ''''####''''         
             ,#######,   #######,   ,#######,      ##                                
            ,#'     '#,  ##    ##  ,#'     '#,    #''#        ,####,   ,####,        
            ##       ##  ##   ,#'  ##            #'  '#       #'       #'  '#        
            ##       ##  #######   ##           ,######,      #####,   #    #        
            '#,     ,#'  ##    ##  '#,     ,#' ,#      #,     #,   #   #,  ,#        
             '#######'   ##     ##  '#######'  #'      '#     '####' # '####'        



                #########################################################
                #                        -***-                          #
                #          Department of theory and spectroscopy        #
                #                                                       #
                #                      Frank Neese                      #
                #                                                       #
                #     Directorship, Architecture, Infrastructure        #
                #                    SHARK, DRIVERS                     #
                #        Core code/Algorithms in most modules           #
                #                                                       #
                #        Max Planck Institute fuer Kohlenforschung      #
                #                Kaiser Wilhelm Platz 1                 #
                #                 D-45470 Muelheim/Ruhr                 #
                #                      Germany                          #
                #                                                       #
                #                  All rights reserved                  #
                #                        -***-                          #
                #########################################################


                         Program Version 6.0.0  -   RELEASE  -


 With contributions from (in alphabetic order):
   Daniel Aravena         : Magnetic Suceptibility
   Michael Atanasov       : Ab Initio Ligand Field Theory (pilot matlab implementation)
   Alexander A. Auer      : GIAO ZORA, VPT2 properties, NMR spectrum
   Ute Becker             : All parallelization in ORCA, NUMFREQ, NUMCALC
   Giovanni Bistoni       : ED, misc. LED, open-shell LED, HFLD
   Martin Brehm           : Molecular dynamics
   Dmytro Bykov           : pre 5.0 version of the SCF Hessian
   Marcos Casanova-Páez   : Triplet and SCS-CIS(D). UHF-(DLPNO)-IP/EA/STEOM-CCSD. UHF-CVS-IP/STEOM-CCSD
   Vijay G. Chilkuri      : MRCI spin determinant printing, contributions to CSF-ICE
   Pauline Colinet        : FMM embedding
   Dipayan Datta          : RHF DLPNO-CCSD density
   Achintya Kumar Dutta   : EOM-CC, STEOM-CC
   Nicolas Foglia         : Exact transition moments, OPA infrastructure, MCD improvements
   Dmitry Ganyushin       : Spin-Orbit,Spin-Spin,Magnetic field MRCI
   Miquel Garcia          : C-PCM and meta-GGA Hessian, CCSD/C-PCM, Gaussian charge scheme
   Tiago L. C. Gouveia    : GS-ROHF, GS-ROCIS
   Yang Guo               : DLPNO-NEVPT2, F12-NEVPT2, CIM, IAO-localization
   Andreas Hansen         : Spin unrestricted coupled pair/coupled cluster methods
   Ingolf Harden          : AUTO-CI MPn and infrastructure 
   Benjamin Helmich-Paris : MC-RPA, TRAH-(SCF,CASSCF), AVAS, COSX integrals, SCF dyn. polar.
   Lee Huntington         : MR-EOM, pCC
   Robert Izsak           : Overlap fitted RIJCOSX, COSX-SCS-MP3, EOM
   Riya Kayal             : Wick's Theorem for AUTO-CI, AUTO-CI UHF-CCSDT
   Emily Kempfer          : AUTO-CI, RHF CISDT and CCSDT
   Christian Kollmar      : KDIIS, OOCD, Brueckner-CCSD(T), CCSD density, CASPT2, CASPT2-K, improved NEVPT2
   Axel Koslowski         : Symmetry handling
   Simone Kossmann        : Meta GGA functionals, TD-DFT gradient, OOMP2, (MP2 Hessian; deprecated post 5.0)
   Lucas Lang             : DCDCAS
   Marvin Lechner         : AUTO-CI (C++ implementation), FIC-MRCC
   Spencer Leger          : CASSCF response
   Dagmar Lenk            : GEPOL surface, SMD, ORCA-2-JSON
   Dimitrios Liakos       : Extrapolation schemes; Compound Job, initial MDCI parallelization
   Dimitrios Manganas     : Further ROCIS development; embedding schemes. LFT, Crystal Embedding
   Dimitrios Pantazis     : SARC Basis sets
   Anastasios Papadopoulos: AUTO-CI, single reference methods and gradients
   Taras Petrenko         : pre 6.0 DFT Hessian and TD-DFT gradient, (ASA, deprecated), ECA, 1-Electron XAS/XES, NRVS
   Peter Pinski           : DLPNO-MP2, DLPNO-MP2 Gradient
   Christoph Reimann      : Effective Core Potentials
   Marius Retegan         : Local ZFS, SOC
   Christoph Riplinger    : Optimizer, TS searches, QM/MM, DLPNO-CCSD(T), (RO)-DLPNO pert. Triples
   Michael Roemelt        : Original ROCIS implementation
   Masaaki Saitow         : Open-shell DLPNO-CCSD energy and density
   Barbara Sandhoefer     : DKH picture change effects
   Kantharuban Sivalingam : CASSCF convergence/infrastructure, NEVPT2 and variants, FIC-MRCI
   Bernardo de Souza      : ESD, SOC TD-DFT
   Georgi Stoychev        : AutoAux, RI-MP2 NMR, DLPNO-MP2 response, X2C
   Van Anh Tran           : RI-MP2 g-tensors
   Willem Van den Heuvel  : Paramagnetic NMR
   Zikuan Wang            : NOTCH, Electric field optimization 
   Frank Wennmohs         : Technical directorship and infrastructure
   Hang Xu                : AUTO-CI-Response properties 


 We gratefully acknowledge several colleagues who have allowed us to
 interface, adapt or use parts of their codes:
   Stefan Grimme, W. Hujo, H. Kruse, P. Pracht,  : VdW corrections, initial TS optimization,
                  C. Bannwarth, S. Ehlert,         DFT functionals, gCP, sTDA/sTD-DF
                  L. Wittmann, M. Mueller
   Ed Valeev, F. Pavosevic, A. Kumar             : LibInt (2-el integral package), F12 methods
   Garnet Chan, S. Sharma, J. Yang, R. Olivares  : DMRG
   Ulf Ekstrom                                   : XCFun DFT Library
   Mihaly Kallay                                 : mrcc  (arbitrary order and MRCC methods)
   Frank Weinhold                                : gennbo (NPA and NBO analysis)
   Simon Mueller                                 : openCOSMO-RS
   Christopher J. Cramer and Donald G. Truhlar   : smd solvation model
   Lars Goerigk                                  : TD-DFT with DH, B97 family of functionals
   V. Asgeirsson, H. Jonsson                     : NEB implementation
   FAccTs GmbH                                   : IRC, NEB, NEB-TS, DLPNO-Multilevel, CI-OPT
                                                   MM, QMMM, 2- and 3-layer-ONIOM, Crystal-QMMM,
                                                   LR-CPCM, SF, NACMEs, symmetry and pop. for TD-DFT,
                                                   nearIR, NL-DFT gradient (VV10), updates on ESD,
                                                   ML-optimized integration grids, MBIS, APM,
                                                   GOAT, DOCKER, SOLVATOR, interface openCOSMO-RS
   S Lehtola, MJT Oliveira, MAL Marques          : LibXC Library
   Liviu Ungur et al                             : ANISO software


 Your calculation uses the libint2 library for the computation of 2-el integrals
 For citations please refer to: http://libint.valeyev.net

 Your ORCA version has been built with support for libXC version: 6.2.2
 For citations please refer to: https://libxc.gitlab.io

 This ORCA versions uses:
   CBLAS   interface :  Fast vector & matrix operations
   LAPACKE interface :  Fast linear algebra routines
   SCALAPACK package :  Parallel linear algebra routines
   Shared memory     :  Shared parallel matrices




***************************************
The coordinates will be read from file: Mol_C12_OCCO2_C2_OCCO2_CCCC1_UFF.xyz
***************************************


Your calculation utilizes the atom-pairwise dispersion correction
based on EEQ partial charges (D4)


================================================================================

----- Orbital basis set information -----
Your calculation utilizes the basis: 6-31+G(d,p)
   H-He, Li-Ne : W. J. Hehre, R. Ditchfield and J.A. Pople, J. Chem. Phys. 56, 2257 (1972).
                 Note: He and Ne are unpublished basis sets taken from the Gaussian program.
                 Note: Li and B from J. D. Dill and J. A. Pople, J. Chem. Phys. 62, 2921 (1975).
   Na - Ar     : M. M. Francl, W. J. Pietro, W. J. Hehre, J. S. Binkley, M. S. Gordon, 
                 D. J. DeFrees and J. A. Pople, J. Chem. Phys. 77, 3654 (1982).
   K - Zn      : V. A. Rassolov, J. A. Pople, M. A. Ratner, and T. L. Windus, J. Chem. Phys. 109, 1223 (1998).
   Additional Pol./Diff. from the 6-311G equivalent.

----- AuxJ basis set information -----
Your calculation utilizes the auxiliary basis: def2/J
   F. Weigend, Phys. Chem. Chem. Phys. 8, 1057 (2006).

================================================================================
                                        WARNINGS
                       Please study these warnings very carefully!
================================================================================


WARNING: Geometry Optimization
  ===> : Switching off AutoStart
         For restart on a previous wavefunction, please use MOREAD

================================================================================
                                       INPUT FILE
================================================================================
NAME = opt.com
|  1> ! B3LYP D4 6-31+G(d,p) def2/J RIJCOSX Opt Freq
|  2> 
|  3> * xyzfile 0 1 Mol_C12_OCCO2_C2_OCCO2_CCCC1_UFF.xyz
|  4> 
|  5> 
|  6>                          ****END OF INPUT****
================================================================================

                       *****************************
                       * Geometry Optimization Run *
                       *****************************

Geometry optimization settings:
Update method            Update   .... BFGS
Choice of coordinates    CoordSys .... (2022) Redundant Internals
Initial Hessian          InHess   .... Almloef's Model
Max. no of cycles        MaxIter  .... 90

Convergence Tolerances:
Energy Change            TolE     ....  5.0000e-06 Eh
Max. Gradient            TolMAXG  ....  3.0000e-04 Eh/bohr
RMS Gradient             TolRMSG  ....  1.0000e-04 Eh/bohr
Max. Displacement        TolMAXD  ....  4.0000e-03 bohr
RMS Displacement         TolRMSD  ....  2.0000e-03 bohr
Strict Convergence                .... False

------------------------------------------------------------------------------
                        ORCA OPTIMIZATION COORDINATE SETUP
------------------------------------------------------------------------------

The optimization will be done in redundant internal coordinates (2022)
Making redundant internal coordinates   ...  (2022 redundants) done
Evaluating the initial hessian          ...  (Almloef) done
Evaluating the coordinates              ...  done
Calculating the B-matrix                .... done
Calculating the G-matrix                .... done
Diagonalizing the G-matrix              .... done
Small eigenvalue found = 2.904e-02
The first mode is                       ....   84
The number of degrees of freedom        ....   84

    -----------------------------------------------------------------
                    Redundant Internal Coordinates


    -----------------------------------------------------------------
         Definition                    Initial Value    Approx d2E/dq
    -----------------------------------------------------------------
      1. B(O   1,C   0)                  1.4166         0.507444   
      2. B(C   2,O   1)                  1.3917         0.556059   
      3. B(C   3,C   2)                  1.4951         0.424715   
      4. B(O   4,C   3)                  1.3902         0.559153   
      5. B(O   4,C   0)                  1.4141         0.512133   
      6. B(C   5,C   0)                  1.5700         0.322502   
      7. B(O   6,C   5)                  1.4155         0.509490   
      8. B(C   7,O   6)                  1.3915         0.556448   
      9. B(C   8,C   7)                  1.4952         0.424575   
     10. B(O   9,C   8)                  1.3907         0.558096   
     11. B(O   9,C   5)                  1.4150         0.510558   
     12. B(C  10,C   5)                  1.5554         0.340245   
     13. B(C  11,C  10)                  1.5307         0.372648   
     14. B(C  12,C  11)                  1.5406         0.359365   
     15. B(C  13,C   0)                  1.5402         0.359865   
     16. B(C  13,C  12)                  1.5430         0.356151   
     17. B(H  14,C   2)                  1.1117         0.332490   
     18. B(H  15,C   2)                  1.1108         0.333585   
     19. B(H  16,C   3)                  1.1122         0.331943   
     20. B(H  17,C   3)                  1.1107         0.333692   
     21. B(H  18,C   7)                  1.1118         0.332412   
     22. B(H  19,C   7)                  1.1108         0.333597   
     23. B(H  20,C   8)                  1.1119         0.332294   
     24. B(H  21,C   8)                  1.1108         0.333555   
     25. B(H  22,C  10)                  1.1131         0.330743   
     26. B(H  23,C  10)                  1.1120         0.332130   
     27. B(H  24,C  11)                  1.1115         0.332750   
     28. B(H  25,C  11)                  1.1119         0.332212   
     29. B(H  26,C  12)                  1.1119         0.332298   
     30. B(H  27,C  12)                  1.1119         0.332317   
     31. B(H  28,C  13)                  1.1128         0.331212   
     32. B(H  29,C  13)                  1.1121         0.332049   
     33. A(O   1,C   0,O   4)          110.5699         0.399631   
     34. A(O   1,C   0,C  13)          108.2850         0.378167   
     35. A(C   5,C   0,C  13)          110.4171         0.352137   
     36. A(O   4,C   0,C   5)          109.5569         0.371669   
     37. A(O   4,C   0,C  13)          108.2139         0.378770   
     38. A(O   1,C   0,C   5)          109.7753         0.371081   
     39. A(C   0,O   1,C   2)          106.3499         0.405471   
     40. A(O   1,C   2,H  15)          110.0622         0.339985   
     41. A(O   1,C   2,H  14)          109.1662         0.339799   
     42. A(H  14,C   2,H  15)          109.5799         0.283826   
     43. A(C   3,C   2,H  14)          110.5627         0.326918   
     44. A(O   1,C   2,C   3)          106.3657         0.395499   
     45. A(C   3,C   2,H  15)          111.0450         0.327095   
     46. A(O   4,C   3,H  16)          109.3374         0.340020   
     47. A(C   2,C   3,H  16)          110.6668         0.326829   
     48. A(C   2,C   3,O   4)          106.0205         0.395884   
     49. A(C   2,C   3,H  17)          111.1012         0.327112   
     50. A(H  16,C   3,H  17)          109.5611         0.283767   
     51. A(O   4,C   3,H  17)          110.0911         0.340319   
     52. A(C   0,O   4,C   3)          105.9052         0.406529   
     53. A(C   0,C   5,C  10)          112.4836         0.348819   
     54. A(O   6,C   5,O   9)          110.6868         0.399698   
     55. A(C   0,C   5,O   9)          108.6850         0.371472   
     56. A(O   9,C   5,C  10)          108.4654         0.374917   
     57. A(O   6,C   5,C  10)          107.4721         0.374781   
     58. A(C   0,C   5,O   6)          109.0547         0.371338   
     59. A(C   5,O   6,C   7)          106.3730         0.405810   
     60. A(O   6,C   7,C   8)          106.4083         0.395525   
     61. A(H  18,C   7,H  19)          109.4517         0.283817   
     62. A(C   8,C   7,H  19)          111.0401         0.327079   
     63. A(O   6,C   7,H  19)          110.0271         0.340027   
     64. A(C   8,C   7,H  18)          110.6105         0.326887   
     65. A(O   6,C   7,H  18)          109.2511         0.339825   
     66. A(C   7,C   8,O   9)          106.3297         0.395730   
     67. A(H  20,C   8,H  21)          109.5386         0.283796   
     68. A(O   9,C   8,H  21)          110.0013         0.340188   
     69. A(C   7,C   8,H  21)          111.0371         0.327072   
     70. A(O   9,C   8,H  20)          109.2469         0.339973   
     71. A(C   7,C   8,H  20)          110.6300         0.326868   
     72. A(C   5,O   9,C   8)          106.2749         0.406172   
     73. A(H  22,C  10,H  23)          106.7173         0.283401   
     74. A(C  11,C  10,H  23)          109.3344         0.319922   
     75. A(C   5,C  10,H  23)          110.0739         0.315216   
     76. A(C  11,C  10,H  22)          108.0094         0.319703   
     77. A(C   5,C  10,H  22)          109.9207         0.315002   
     78. A(C   5,C  10,C  11)          112.5935         0.357458   
     79. A(H  24,C  11,H  25)          107.3561         0.283678   
     80. A(C  12,C  11,H  25)          109.9076         0.318045   
     81. A(C  10,C  11,H  25)          109.1108         0.319934   
     82. A(C  12,C  11,H  24)          109.3965         0.318129   
     83. A(C  10,C  11,H  24)          109.5280         0.320019   
     84. A(C  10,C  11,C  12)          111.4505         0.360801   
     85. A(C  13,C  12,H  27)          109.4204         0.317596   
     86. A(C  11,C  12,H  27)          108.6127         0.318062   
     87. A(C  13,C  12,H  26)          108.6361         0.317593   
     88. A(C  11,C  12,H  26)          109.3949         0.318059   
     89. A(C  11,C  12,C  13)          113.3377         0.358030   
     90. A(H  26,C  12,H  27)          107.2634         0.283633   
     91. A(C  12,C  13,H  29)          109.2119         0.317555   
     92. A(C   0,C  13,H  29)          109.7941         0.318092   
     93. A(C  12,C  13,H  28)          109.2491         0.317424   
     94. A(C   0,C  13,H  28)          108.9895         0.317961   
     95. A(C   0,C  13,C  12)          112.1946         0.358114   
     96. A(H  28,C  13,H  29)          107.2758         0.283453   
     97. D(C   2,O   1,C   0,C   5)    122.2432         0.020377   
     98. D(C   2,O   1,C   0,O   4)      1.2545         0.020377   
     99. D(C   2,O   1,C   0,C  13)   -117.1443         0.020377   
    100. D(H  14,C   2,O   1,C   0)    105.5277         0.024674   
    101. D(H  15,C   2,O   1,C   0)   -134.1648         0.024674   
    102. D(C   3,C   2,O   1,C   0)    -13.7877         0.024674   
    103. D(O   4,C   3,C   2,H  14)    -96.5068         0.014266   
    104. D(H  16,C   3,C   2,O   1)    -96.5649         0.014266   
    105. D(O   4,C   3,C   2,O   1)     21.8929         0.014266   
    106. D(H  16,C   3,C   2,H  14)    145.0353         0.014266   
    107. D(H  16,C   3,C   2,H  15)     23.1754         0.014266   
    108. D(O   4,C   3,C   2,H  15)    141.6333         0.014266   
    109. D(C   3,O   4,C   0,C  13)    131.1944         0.020769   
    110. D(C   3,O   4,C   0,C   5)   -108.3660         0.020769   
    111. D(C   3,O   4,C   0,O   1)     12.7523         0.020769   
    112. D(C   0,O   4,C   3,H  16)     98.7265         0.024965   
    113. D(C   0,O   4,C   3,H  17)   -140.8638         0.024965   
    114. D(C   0,O   4,C   3,C   2)    -20.6082         0.024965   
    115. D(O   9,C   5,C   0,C  13)   -151.4320         0.008511   
    116. D(O   9,C   5,C   0,O   4)     89.4789         0.008511   
    117. D(O   9,C   5,C   0,O   1)    -32.1185         0.008511   
    118. D(O   6,C   5,C   0,O   4)    -31.2743         0.008511   
    119. D(O   6,C   5,C   0,O   1)   -152.8716         0.008511   
    120. D(O   6,C   5,C   0,C  13)     87.8149         0.008511   
    121. D(C   7,O   6,C   5,O   9)     -5.0258         0.020548   
    122. D(C   7,O   6,C   5,C   0)    114.4936         0.020548   
    123. D(C   7,O   6,C   5,C  10)   -123.3065         0.020548   
    124. D(H  19,C   7,O   6,C   5)    135.5845         0.024710   
    125. D(H  18,C   7,O   6,C   5)   -104.2341         0.024710   
    126. D(C   8,C   7,O   6,C   5)     15.2074         0.024710   
    127. D(O   9,C   8,C   7,O   6)    -20.5120         0.014256   
    128. D(H  20,C   8,C   7,H  19)    -21.7220         0.014256   
    129. D(H  20,C   8,C   7,H  18)   -143.4486         0.014256   
    130. D(H  20,C   8,C   7,O   6)     97.9993         0.014256   
    131. D(O   9,C   8,C   7,H  19)   -140.2332         0.014256   
    132. D(O   9,C   8,C   7,H  18)     98.0401         0.014256   
    133. D(C   5,O   9,C   8,H  21)    137.3478         0.024865   
    134. D(C   5,O   9,C   8,H  20)   -102.3825         0.024865   
    135. D(C   5,O   9,C   8,C   7)     17.0353         0.024865   
    136. D(C   8,O   9,C   5,C  10)    109.5725         0.020637   
    137. D(C   8,O   9,C   5,O   6)     -8.1017         0.020637   
    138. D(C   8,O   9,C   5,C   0)   -127.8433         0.020637   
    139. D(H  22,C  10,C   5,O   9)   -147.2026         0.009372   
    140. D(H  22,C  10,C   5,O   6)    -27.4963         0.009372   
    141. D(H  22,C  10,C   5,C   0)     92.5495         0.009372   
    142. D(C  11,C  10,C   5,O   9)     92.3338         0.009372   
    143. D(C  11,C  10,C   5,O   6)   -147.9598         0.009372   
    144. D(C  11,C  10,C   5,C   0)    -27.9141         0.009372   
    145. D(H  24,C  11,C  10,H  23)    -55.1387         0.011092   
    146. D(H  24,C  11,C  10,H  22)     60.6221         0.011092   
    147. D(H  24,C  11,C  10,C   5)   -177.8216         0.011092   
    148. D(C  12,C  11,C  10,H  23)   -176.3335         0.011092   
    149. D(C  12,C  11,C  10,H  22)    -60.5727         0.011092   
    150. D(C  12,C  11,C  10,C   5)     60.9836         0.011092   
    151. D(H  26,C  12,C  11,H  25)   -147.8656         0.010363   
    152. D(H  26,C  12,C  11,H  24)    -30.2288         0.010363   
    153. D(H  26,C  12,C  11,C  10)     91.0427         0.010363   
    154. D(C  13,C  12,C  11,H  25)     90.7442         0.010363   
    155. D(C  13,C  12,C  11,H  24)   -151.6189         0.010363   
    156. D(C  13,C  12,C  11,C  10)    -30.3474         0.010363   
    157. D(C  12,C  13,C   0,C   5)     62.0046         0.010390   
    158. D(C  12,C  13,C   0,O   4)   -178.0940         0.010390   
    159. D(C  12,C  13,C   0,O   1)    -58.2077         0.010390   
    160. D(H  28,C  13,C  12,H  27)   -147.2464         0.010192   
    161. D(H  28,C  13,C  12,C  11)     91.3750         0.010192   
    162. D(C   0,C  13,C  12,H  27)     91.7754         0.010192   
    163. D(C   0,C  13,C  12,H  26)   -151.4182         0.010192   
    164. D(C   0,C  13,C  12,C  11)    -29.6031         0.010192   
    165. D(H  28,C  13,C   0,C   5)    -59.1229         0.010390   
    166. D(H  28,C  13,C  12,H  26)    -30.4401         0.010192   
    167. D(H  28,C  13,C   0,O   4)     60.7784         0.010390   
    168. D(H  28,C  13,C   0,O   1)   -179.3353         0.010390   
    -----------------------------------------------------------------

Number of atoms                         .... 30
Number of degrees of freedom            .... 168


         *************************************************************
         *                GEOMETRY OPTIMIZATION CYCLE   1            *
         *************************************************************
---------------------------------
CARTESIAN COORDINATES (ANGSTROEM)
---------------------------------
  C     -0.559429   -0.489063   -0.283084
  O     -1.098756   -0.826454    0.982671
  C     -2.444426   -0.473745    0.941782
  C     -2.615999    0.394173   -0.263428
  O     -1.549592    0.097781   -1.104635
  C      0.634801    0.513816   -0.101416
  O      0.754526    1.306101   -1.268331
  C      0.456873    2.611294   -0.888533
  C      0.520644    2.641540    0.604965
  O      0.377692    1.324829    1.029194
  C      1.993899   -0.211999    0.111735
  C      1.829984   -1.588645    0.760540
  C      0.979197   -2.527025   -0.116340
  C     -0.075277   -1.783625   -0.962682
  H     -3.060510   -1.394643    0.850696
  H     -2.723918    0.070953    1.868663
  H     -2.575187    1.469338    0.018106
  H     -3.577611    0.180358   -0.776567
  H     -0.564460    2.872045   -1.242002
  H      1.192982    3.314211   -1.333448
  H      1.503738    3.032214    0.947262
  H     -0.294859    3.267149    1.026324
  H      2.506925   -0.351348   -0.866266
  H      2.666120    0.413116    0.739362
  H      2.830765   -2.043497    0.924808
  H      1.353327   -1.466708    1.757709
  H      1.644864   -3.098205   -0.799641
  H      0.471297   -3.264755    0.542459
  H      0.362125   -1.530398   -1.954043
  H     -0.939735   -2.458807   -1.145860

----------------------------
CARTESIAN COORDINATES (A.U.)
----------------------------
  NO LB      ZA    FRAG     MASS         X           Y           Z
   0 C     6.0000    0    12.011   -1.057168   -0.924195   -0.534951
   1 O     8.0000    0    15.999   -2.076348   -1.561772    1.856979
   2 C     6.0000    0    12.011   -4.619296   -0.895248    1.779710
   3 C     6.0000    0    12.011   -4.943522    0.744879   -0.497807
   4 O     8.0000    0    15.999   -2.928304    0.184779   -2.087458
   5 C     6.0000    0    12.011    1.199600    0.970972   -0.191648
   6 O     8.0000    0    15.999    1.425848    2.468173   -2.396798
   7 C     6.0000    0    12.011    0.863365    4.934631   -1.679084
   8 C     6.0000    0    12.011    0.983875    4.991787    1.143218
   9 O     8.0000    0    15.999    0.713734    2.503564    1.944895
  10 C     6.0000    0    12.011    3.767923   -0.400620    0.211149
  11 C     6.0000    0    12.011    3.458169   -3.002104    1.437212
  12 C     6.0000    0    12.011    1.850414   -4.775385   -0.219851
  13 C     6.0000    0    12.011   -0.142253   -3.370563   -1.819205
  14 H     1.0000    0     1.008   -5.783526   -2.635493    1.607582
  15 H     1.0000    0     1.008   -5.147459    0.134082    3.531261
  16 H     1.0000    0     1.008   -4.866398    2.776646    0.034215
  17 H     1.0000    0     1.008   -6.760705    0.340827   -1.467499
  18 H     1.0000    0     1.008   -1.066675    5.427378   -2.347044
  19 H     1.0000    0     1.008    2.254409    6.262951   -2.519852
  20 H     1.0000    0     1.008    2.841653    5.730054    1.790066
  21 H     1.0000    0     1.008   -0.557203    6.174017    1.939471
  22 H     1.0000    0     1.008    4.737402   -0.663951   -1.637005
  23 H     1.0000    0     1.008    5.038237    0.780676    1.397192
  24 H     1.0000    0     1.008    5.349371   -3.861650    1.747634
  25 H     1.0000    0     1.008    2.557417   -2.771676    3.321589
  26 H     1.0000    0     1.008    3.108342   -5.854759   -1.511102
  27 H     1.0000    0     1.008    0.890622   -6.169493    1.025099
  28 H     1.0000    0     1.008    0.684317   -2.892033   -3.692606
  29 H     1.0000    0     1.008   -1.775842   -4.646472   -2.165362

--------------------------------
INTERNAL COORDINATES (ANGSTROEM)
--------------------------------
 C      0   0   0     0.000000000000     0.00000000     0.00000000
 O      1   0   0     1.416630516343     0.00000000     0.00000000
 C      2   1   0     1.391726732481   106.34990139     0.00000000
 C      3   2   1     1.495075280096   106.36569755   346.21225169
 O      4   3   2     1.390216286828   106.02048532    21.89294886
 C      1   2   3     1.570017466070   109.77527557   122.24321332
 O      6   1   2     1.415535310077   109.05471786   207.12835082
 C      7   6   1     1.391536056472   106.37298752   114.49357697
 C      8   7   6     1.495164819330   106.40832506    15.20741562
 O      9   8   7     1.390731237970   106.32966124   339.48802294
 C      6   1   2     1.555438245843   112.48364147    88.00256503
 C     11   6   1     1.530676407529   112.59345711   332.08591458
 C     12  11   6     1.540556418366   111.45053649    60.98359727
 C      1   2   3     1.540177708108   108.28503177   242.85567352
 H      3   2   1     1.111714568069   109.16619146   105.52766950
 H      3   2   1     1.110819552146   110.06217496   225.83518005
 H      4   3   2     1.112163112913   110.66680392   263.43505167
 H      4   3   2     1.110732247704   111.10118808   141.48911419
 H      8   7   6     1.111778986513   109.25111441   255.76589292
 H      8   7   6     1.110809671364   110.02714464   135.58451376
 H      9   8   7     1.111875543090   110.62999050    97.99929337
 H      9   8   7     1.110844350380   111.03709903   219.84757234
 H     11   6   1     1.113148586882   109.92068167    92.54949449
 H     11   6   1     1.112009661467   110.07391573   209.81917247
 H     12  11   6     1.111502104222   109.52796691   182.17843907
 H     12  11   6     1.111942688352   109.11077750   299.42804951
 H     13  12  11     1.111872026759   109.39491856    91.04271209
 H     13  12  11     1.111856144158   108.61270699   207.82166321
 H     14   1   2     1.112762802871   108.98946990   180.66469617
 H     14   1   2     1.112075782747   109.79413036    63.43003848

---------------------------
INTERNAL COORDINATES (A.U.)
---------------------------
 C      0   0   0     0.000000000000     0.00000000     0.00000000
 O      1   0   0     2.677043708844     0.00000000     0.00000000
 C      2   1   0     2.629982377646   106.34990139     0.00000000
 C      3   2   1     2.825282828976   106.36569755   346.21225169
 O      4   3   2     2.627128049022   106.02048532    21.89294886
 C      1   2   3     2.966903036345   109.77527557   122.24321332
 O      6   1   2     2.674974068941   109.05471786   207.12835082
 C      7   6   1     2.629622052209   106.37298752   114.49357697
 C      8   7   6     2.825452033607   106.40832506    15.20741562
 O      9   8   7     2.628101165653   106.32966124   339.48802294
 C      6   1   2     2.939352302869   112.48364147    88.00256503
 C     11   6   1     2.892559209884   112.59345711   332.08591458
 C     12  11   6     2.911229724567   111.45053649    60.98359727
 C      1   2   3     2.910514065894   108.28503177   242.85567352
 H      3   2   1     2.100836072740   109.16619146   105.52766950
 H      3   2   1     2.099144737760   110.06217496   225.83518005
 H      4   3   2     2.101683699655   110.66680392   263.43505167
 H      4   3   2     2.098979756276   111.10118808   141.48911419
 H      8   7   6     2.100957805957   109.25111441   255.76589292
 H      8   7   6     2.099126065788   110.02714464   135.58451376
 H      9   8   7     2.101140271444   110.62999050    97.99929337
 H      9   8   7     2.099191599632   111.03709903   219.84757234
 H     11   6   1     2.103545975569   109.92068167    92.54949449
 H     11   6   1     2.101393718446   110.07391573   209.81917247
 H     12  11   6     2.100434574256   109.52796691   182.17843907
 H     12  11   6     2.101267157601   109.11077750   299.42804951
 H     13  12  11     2.101133626543   109.39491856    91.04271209
 H     13  12  11     2.101103612776   108.61270699   207.82166321
 H     14   1   2     2.102816949441   108.98946990   180.66469617
 H     14   1   2     2.101518669558   109.79413036    63.43003848

---------------------
BASIS SET INFORMATION
---------------------
There are 3 groups of distinct atoms

 Group   1 Type C   : 11s5p1d contracted to 4s3p1d pattern {6311/311/1}
 Group   2 Type O   : 11s5p1d contracted to 4s3p1d pattern {6311/311/1}
 Group   3 Type H   : 4s1p contracted to 2s1p pattern {31/1}

Atom   0C    basis set group =>   1
Atom   1O    basis set group =>   2
Atom   2C    basis set group =>   1
Atom   3C    basis set group =>   1
Atom   4O    basis set group =>   2
Atom   5C    basis set group =>   1
Atom   6O    basis set group =>   2
Atom   7C    basis set group =>   1
Atom   8C    basis set group =>   1
Atom   9O    basis set group =>   2
Atom  10C    basis set group =>   1
Atom  11C    basis set group =>   1
Atom  12C    basis set group =>   1
Atom  13C    basis set group =>   1
Atom  14H    basis set group =>   3
Atom  15H    basis set group =>   3
Atom  16H    basis set group =>   3
Atom  17H    basis set group =>   3
Atom  18H    basis set group =>   3
Atom  19H    basis set group =>   3
Atom  20H    basis set group =>   3
Atom  21H    basis set group =>   3
Atom  22H    basis set group =>   3
Atom  23H    basis set group =>   3
Atom  24H    basis set group =>   3
Atom  25H    basis set group =>   3
Atom  26H    basis set group =>   3
Atom  27H    basis set group =>   3
Atom  28H    basis set group =>   3
Atom  29H    basis set group =>   3
---------------------------------
AUXILIARY/J BASIS SET INFORMATION
---------------------------------
There are 3 groups of distinct atoms

 Group   1 Type C   : 12s5p4d2f1g contracted to 6s4p3d1f1g pattern {711111/2111/211/2/1}
 Group   2 Type O   : 12s5p4d2f1g contracted to 6s4p3d1f1g pattern {711111/2111/211/2/1}
 Group   3 Type H   : 5s2p1d contracted to 3s1p1d pattern {311/2/1}

Atom   0C    basis set group =>   1
Atom   1O    basis set group =>   2
Atom   2C    basis set group =>   1
Atom   3C    basis set group =>   1
Atom   4O    basis set group =>   2
Atom   5C    basis set group =>   1
Atom   6O    basis set group =>   2
Atom   7C    basis set group =>   1
Atom   8C    basis set group =>   1
Atom   9O    basis set group =>   2
Atom  10C    basis set group =>   1
Atom  11C    basis set group =>   1
Atom  12C    basis set group =>   1
Atom  13C    basis set group =>   1
Atom  14H    basis set group =>   3
Atom  15H    basis set group =>   3
Atom  16H    basis set group =>   3
Atom  17H    basis set group =>   3
Atom  18H    basis set group =>   3
Atom  19H    basis set group =>   3
Atom  20H    basis set group =>   3
Atom  21H    basis set group =>   3
Atom  22H    basis set group =>   3
Atom  23H    basis set group =>   3
Atom  24H    basis set group =>   3
Atom  25H    basis set group =>   3
Atom  26H    basis set group =>   3
Atom  27H    basis set group =>   3
Atom  28H    basis set group =>   3
Atom  29H    basis set group =>   3
------------------------------------------------------------------------------
                             ORCA STARTUP CALCULATIONS
                           -- RI-GTO INTEGRALS CHOSEN --
------------------------------------------------------------------------------
------------------------------------------------------------------------------
                   ___                                                        
                  /   \      - P O W E R E D   B Y -                         
                 /     \                                                     
                 |  |  |   _    _      __       _____    __    __             
                 |  |  |  | |  | |    /  \     |  _  \  |  |  /  |          
                  \  \/   | |  | |   /    \    | | | |  |  | /  /          
                 / \  \   | |__| |  /  /\  \   | |_| |  |  |/  /          
                |  |  |   |  __  | /  /__\  \  |    /   |      \           
                |  |  |   | |  | | |   __   |  |    \   |  |\   \          
                \     /   | |  | | |  |  |  |  | |\  \  |  | \   \       
                 \___/    |_|  |_| |__|  |__|  |_| \__\ |__|  \__/        
                                                                              
                      - O R C A' S   B I G   F R I E N D -                    
                                      &                                       
                       - I N T E G R A L  F E E D E R -                       
                                                                              
 v1 FN, 2020, v2 2021, v3 2022-2024                                           
------------------------------------------------------------------------------


----------------------
SHARK INTEGRAL PACKAGE
----------------------

Number of atoms                             ...     30
Number of basis functions                   ...    332
Number of shells                            ...    160
Maximum angular momentum                    ...      2
Integral batch strategy                     ... SHARK/LIBINT Hybrid
RI-J (if used) integral strategy            ... SPLIT-RIJ (Revised 2003 algorithm where possible)
Printlevel                                  ...      1
Contraction scheme used                     ... SEGMENTED contraction
Prescreening option                         ... SCHWARTZ
   Thresh                                   ... 2.500e-11
   Tcut                                     ... 2.500e-12
   Tpresel                                  ... 2.500e-12 
Coulomb Range Separation                    ... NOT USED
Exchange Range Separation                   ... NOT USED
Multipole approximations                    ... NOT USED
Finite Nucleus Model                        ... NOT USED
CABS basis                                  ... NOT available
Auxiliary Coulomb fitting basis             ... AVAILABLE
   # of basis functions in Aux-J            ...    862
   # of shells in Aux-J                     ...    290
   Maximum angular momentum in Aux-J        ...      4
Auxiliary J/K fitting basis                 ... NOT available
Auxiliary Correlation fitting basis         ... NOT available
Auxiliary 'external' fitting basis          ... NOT available

Checking pre-screening integrals            ... done (  0.0 sec) Dimension = 160
Check shell pair data                       ... done (  0.0 sec)
Shell pair information
Shell pair cut-off parameter TPreSel        ...   2.5e-12
Total number of shell pairs                 ...     12880
Shell pairs after pre-screening             ...     11696
Total number of primitive shell pairs       ...     51063
Primitive shell pairs kept                  ...     31693
          la=0 lb=0:   3558 shell pairs
          la=1 lb=0:   4628 shell pairs
          la=1 lb=1:   1552 shell pairs
          la=2 lb=0:   1115 shell pairs
          la=2 lb=1:    741 shell pairs
          la=2 lb=2:    102 shell pairs

Calculating one electron integrals          ... done (  0.0 sec)
Calculating RI/J V-Matrix + Cholesky decomp.... done (  0.0 sec)
Calculating Nuclear repulsion               ... done (  0.0 sec) ENN=   1071.705043886129 Eh

Diagonalization of the overlap matrix:
Smallest eigenvalue                        ... 4.680e-06
Time for diagonalization                   ...    0.008 sec
Threshold for overlap eigenvalues          ... 1.000e-07
Number of eigenvalues below threshold      ... 0
Time for construction of square roots      ...    0.003 sec
Total time needed                          ...    0.011 sec

-------------------
DFT GRID GENERATION
-------------------

General Integration Accuracy     IntAcc      ... 4.388
Radial Grid Type                 RadialGrid  ... OptM3 with GC (2021)
Angular Grid (max. ang.)         AngularGrid ... 4 (Lebedev-302)
Angular grid pruning method      GridPruning ... 4 (adaptive)
Weight generation scheme         WeightScheme... mBecke (2022)
Basis function cutoff            BFCut       ... 1.0000e-11
Integration weight cutoff        WCut        ... 1.0000e-14
Partially contracted basis set               ... off
Rotationally invariant grid construction     ... off
Angular grids for H and He will be reduced by one unit
Diffuse basis detected: some atoms will have their outermost
                        angular grid increased by 1.

Total number of grid points                  ...   137520
Total number of batches                      ...     2161
Average number of points per batch           ...       63
Average number of grid points per atom       ...     4584

--------------------
COSX GRID GENERATION
--------------------

GRIDX 1
-------
General Integration Accuracy     IntAcc      ... 3.816
Radial Grid Type                 RadialGrid  ... OptM3 with GC (2021)
Angular Grid (max. ang.)         AngularGrid ... 1 (Lebedev-50)
Angular grid pruning method      GridPruning ... 4 (adaptive)
Weight generation scheme         WeightScheme... mBecke (2022)
Basis function cutoff            BFCut       ... 1.0000e-11
Integration weight cutoff        WCut        ... 1.0000e-14
Partially contracted basis set               ... on
Rotationally invariant grid construction     ... off
Angular grids for H and He will be reduced by one unit
Diffuse basis detected: some atoms will have their outermost
                        angular grid increased by 1.

Total number of grid points                  ...    17509
Total number of batches                      ...      158
Average number of points per batch           ...      110
Average number of grid points per atom       ...      584
UseSFitting                                  ... on

GRIDX 2
-------
General Integration Accuracy     IntAcc      ... 4.020
Radial Grid Type                 RadialGrid  ... OptM3 with GC (2021)
Angular Grid (max. ang.)         AngularGrid ... 2 (Lebedev-110)
Angular grid pruning method      GridPruning ... 4 (adaptive)
Weight generation scheme         WeightScheme... mBecke (2022)
Basis function cutoff            BFCut       ... 1.0000e-11
Integration weight cutoff        WCut        ... 1.0000e-14
Partially contracted basis set               ... on
Rotationally invariant grid construction     ... off
Angular grids for H and He will be reduced by one unit
Diffuse basis detected: some atoms will have their outermost
                        angular grid increased by 1.

Total number of grid points                  ...    39678
Total number of batches                      ...      326
Average number of points per batch           ...      121
Average number of grid points per atom       ...     1323
UseSFitting                                  ... on

GRIDX 3
-------
General Integration Accuracy     IntAcc      ... 4.338
Radial Grid Type                 RadialGrid  ... OptM3 with GC (2021)
Angular Grid (max. ang.)         AngularGrid ... 3 (Lebedev-194)
Angular grid pruning method      GridPruning ... 4 (adaptive)
Weight generation scheme         WeightScheme... mBecke (2022)
Basis function cutoff            BFCut       ... 1.0000e-11
Integration weight cutoff        WCut        ... 1.0000e-14
Partially contracted basis set               ... on
Rotationally invariant grid construction     ... off
Angular grids for H and He will be reduced by one unit
Diffuse basis detected: some atoms will have their outermost
                        angular grid increased by 1.

Total number of grid points                  ...    85533
Total number of batches                      ...      683
Average number of points per batch           ...      125
Average number of grid points per atom       ...     2851
UseSFitting                                  ... on
Initializing property integral containers    ... done (  0.0 sec)

SHARK setup successfully completed in   2.4 seconds

Maximum memory used throughout the entire STARTUP-calculation: 63.9 MB
-------------------------------------------------------------------------------
                                 ORCA GUESS
                   Start orbitals & Density for SCF / CASSCF
-------------------------------------------------------------------------------

------------
SCF SETTINGS
------------
Hamiltonian:
 Density Functional     Method          .... DFT(GTOs)
 Exchange Functional    Exchange        .... B88
   X-Alpha parameter    XAlpha          ....  0.666667
   Becke's b parameter  XBeta           ....  0.004200
 Correlation Functional Correlation     .... LYP
 LDA part of GGA corr.  LDAOpt          .... VWN-5
 Gradients option       PostSCFGGA      .... off
 Hybrid DFT is turned on
   Fraction HF Exchange ScalHFX         ....  0.200000
   Scaling of DF-GGA-X  ScalDFX         ....  0.720000
   Scaling of DF-GGA-C  ScalDFC         ....  0.810000
   Scaling of DF-LDA-C  ScalLDAC        ....  1.000000
   Perturbative correction              ....  0.000000
   NL short-range parameter             ....  4.800000
 RI-approximation to the Coulomb term is turned on
   Number of AuxJ basis functions       .... 862
   RIJ-COSX (HFX calculated with COS-X)).... on


General Settings:
 Integral files         IntName         .... opt
 Hartree-Fock type      HFTyp           .... RHF
 Total Charge           Charge          ....    0
 Multiplicity           Mult            ....    1
 Number of Electrons    NEL             ....  108
 Basis Dimension        Dim             ....  332
 Nuclear Repulsion      ENuc            ....   1071.7050438861 Eh

Convergence Acceleration:
 AO-DIIS                CNVDIIS         .... on
   Start iteration      DIISMaxIt       ....    12
   Startup error        DIISStart       ....  0.200000
   # of expansion vecs  DIISMaxEq       ....     5
   Bias factor          DIISBfac        ....   1.050
   Max. coefficient     DIISMaxC        ....  10.000
 MO-DIIS                CNVKDIIS        .... off
 Trust-Rad. Augm. Hess. CNVTRAH         .... auto
   Auto Start mean grad. ratio tolernc. ....  1.125000
   Auto Start start iteration           ....    50
   Auto Start num. interpolation iter.  ....    10
   Max. Number of Micro iterations      ....    24
   Max. Number of Macro iterations      .... Maxiter - #DIIS iter
   Number of Davidson start vectors     ....     2
   Converg. threshold    (grad. norm)   ....   1.000e-05
   Grad. Scal. Fac. for Micro threshold ....   0.100
   Minimum threshold for Micro iter.    ....   1.000e-02
   NR start threshold (gradient norm)   ....   1.000e-04
   Initial trust radius                 ....   0.400
   Minimum AH scaling param. (alpha)    ....   1.000
   Maximum AH scaling param. (alpha)    .... 1000.000
   Quad. conv. algorithm                .... NR
   White noise on init. David. guess    .... on
   Maximum white noise                  ....   0.010
   Pseudo random numbers                .... off
   Inactive MOs                         .... canonical
   Orbital update algorithm             .... Taylor
   Preconditioner                       .... Diag
   Full preconditioner red. dimension   ....   250
 SOSCF                  CNVSOSCF        .... on
   Start iteration      SOSCFMaxIt      ....   150
   Startup grad/error   SOSCFStart      ....  0.003300
   Hessian update       SOSCFHessUp     .... L-BFGS
 Level Shifting         CNVShift        .... on
   Level shift para.    LevelShift      ....    0.2500
   Turn off err/grad.   ShiftErr        ....    0.0010
 Zerner damping         CNVZerner       .... off
 Static damping         CNVDamp         .... on
   Fraction old density DampFac         ....    0.7000
   Max. Damping (<1)    DampMax         ....    0.9800
   Min. Damping (>=0)   DampMin         ....    0.0000
   Turn off err/grad.   DampErr         ....    0.1000

SCF Procedure:
 Maximum # iterations   MaxIter         ....   125
 SCF integral mode      SCFMode         .... Direct
   Integral package                     .... SHARK and LIBINT hybrid scheme
 Reset frequency        DirectResetFreq ....    20
 Integral Threshold     Thresh          ....  2.500e-11 Eh
 Primitive CutOff       TCut            ....  2.500e-12 Eh

Convergence Tolerance:
 Convergence Check Mode ConvCheckMode   .... Total+1el-Energy
 Convergence forced     ConvForced      .... 0
 Energy Change          TolE            ....  1.000e-08 Eh
 1-El. energy change                    ....  1.000e-05 Eh
 Orbital Gradient       TolG            ....  1.000e-05
 Orbital Rotation angle TolX            ....  1.000e-05
 DIIS Error             TolErr          ....  5.000e-07

------------------------------
INITIAL GUESS: MODEL POTENTIAL
------------------------------
Loading Hartree-Fock densities                     ... done
Calculating cut-offs                               ... done
Initializing the effective Hamiltonian             ... done
Setting up the integral package (SHARK)            ... done
Starting the Coulomb interaction                   ... done (   0.4 sec)
Making the grid                                    ... done (   0.3 sec)
Mapping shells                                     ... done
Starting the XC term evaluation                    ... done (   0.5 sec)
  promolecular density results
     # of electrons  =    108.000134150
     EX              =    -89.054896528
     EC              =     -3.701889311
     EX+EC           =    -92.756785838
Transforming the Hamiltonian                       ... done (   0.0 sec)
Diagonalizing the Hamiltonian                      ... done (   0.0 sec)
Back transforming the eigenvectors                 ... done (   0.0 sec)
Now organizing SCF variables                       ... done
                      ------------------
                      INITIAL GUESS DONE (   1.1 sec)
                      ------------------
             **** ENERGY FILE WAS UPDATED (opt.en.tmp) ****
Finished Guess after   1.2 sec
Maximum memory used throughout the entire GUESS-calculation: 36.5 MB

-------------------------------------------------------------------------------------------
                                      ORCA LEAN-SCF
                              memory conserving SCF solver
-------------------------------------------------------------------------------------------

----------------------------------------D-I-I-S--------------------------------------------
Iteration    Energy (Eh)           Delta-E    RMSDP     MaxDP     DIISErr   Damp  Time(sec)
-------------------------------------------------------------------------------------------
               ***  Starting incremental Fock matrix formation  ***
    1    -690.8351400677106540     0.00e+00  1.17e-02  1.16e+00  1.75e-01  0.700  14.6
    2    -690.9902314385251429    -1.55e-01  1.03e-02  1.07e+00  7.66e-02  0.700   7.0
                               ***Turning on AO-DIIS***
    3    -691.0516847046058047    -6.15e-02  3.49e-03  3.77e-01  2.66e-02  0.700   6.9
    4    -691.0884174253474157    -3.67e-02  4.31e-03  3.69e-01  1.36e-02  0.000   6.6
    5    -691.1692399536200355    -8.08e-02  2.95e-03  3.36e-01  3.38e-03  0.000   6.8
                              *** Initializing SOSCF ***
---------------------------------------S-O-S-C-F--------------------------------------
Iteration    Energy (Eh)           Delta-E    RMSDP     MaxDP     MaxGrad    Time(sec)
--------------------------------------------------------------------------------------
    6    -691.1695392559754509    -2.99e-04  1.21e-03  1.45e-01  1.19e-03     6.4
               *** Restarting incremental Fock matrix formation ***
    7    -691.1695506236253550    -1.14e-05  6.89e-04  6.90e-02  1.13e-04    18.6
    8    -691.1695490920326392     1.53e-06  1.36e-04  8.75e-03  1.97e-04    11.9
    9    -691.1695549951323301    -5.90e-06  6.34e-05  5.63e-03  1.58e-05    10.1
   10    -691.1695549738744830     2.13e-08  1.46e-04  1.39e-02  2.17e-05     9.3
   11    -691.1695550669205659    -9.30e-08  2.01e-04  2.08e-02  3.84e-06     8.7
   12    -691.1695550666686358     2.52e-10  7.95e-05  9.62e-03  4.40e-06     8.0
                 **** Energy Check signals convergence ****

               *****************************************************
               *                     SUCCESS                       *
               *           SCF CONVERGED AFTER  12 CYCLES          *
               *****************************************************

Recomputing exchange energy using gridx3       ... done (   26.968 sec)
Old exchange energy                            :    -18.115884515 Eh
New exchange energy                            :    -18.115850659 Eh
Exchange energy change after final integration :      0.000033857 Eh
Total energy after final integration           :   -691.169521210 Eh
             **** ENERGY FILE WAS UPDATED (opt.en.tmp) ****

----------------
TOTAL SCF ENERGY
----------------

Total Energy       :       -691.16952120975566 Eh          -18807.67884 eV

Components:
Nuclear Repulsion  :       1071.70504388612858 Eh           29162.57684 eV
Electronic Energy  :      -1762.87459895279721 Eh          -47970.25660 eV
One Electron Energy:      -3071.13326930262019 Eh          -83569.78486 eV
Two Electron Energy:       1308.25867034982298 Eh           35599.52827 eV

Virial components:
Potential Energy   :      -1378.33670534288785 Eh          -37506.44854 eV
Kinetic Energy     :        687.16718413313220 Eh           18698.76971 eV
Virial Ratio       :          2.00582440077035

DFT components:
N(Alpha)           :       54.000104652960 electrons
N(Beta)            :       54.000104652960 electrons
N(Total)           :      108.000209305919 electrons
E(X)               :      -71.936474419396 Eh       
E(C)               :       -4.344434571106 Eh       
E(XC)              :      -76.280908990502 Eh       

---------------
SCF CONVERGENCE
---------------

  Last Energy change         ...   -2.5193e-10  Tolerance :   1.0000e-08
  Last MAX-Density change    ...    9.6188e-03  Tolerance :   1.0000e-07
  Last RMS-Density change    ...    7.9516e-05  Tolerance :   5.0000e-09
  Last DIIS Error            ...    1.1916e-03  Tolerance :   5.0000e-07
  Last Orbital Gradient      ...    4.3961e-06  Tolerance :   1.0000e-05
  Last Orbital Rotation      ...    2.4641e-06  Tolerance :   1.0000e-05


----------------
ORBITAL ENERGIES
----------------

  NO   OCC          E(Eh)            E(eV) 
   0   2.0000     -19.161375      -521.4075 
   1   2.0000     -19.161011      -521.3976 
   2   2.0000     -19.158802      -521.3375 
   3   2.0000     -19.158730      -521.3356 
   4   2.0000     -10.284479      -279.8549 
   5   2.0000     -10.284238      -279.8483 
   6   2.0000     -10.235770      -278.5295 
   7   2.0000     -10.235234      -278.5149 
   8   2.0000     -10.233857      -278.4774 
   9   2.0000     -10.233460      -278.4666 
  10   2.0000     -10.175487      -276.8891 
  11   2.0000     -10.174787      -276.8700 
  12   2.0000     -10.174337      -276.8578 
  13   2.0000     -10.172007      -276.7944 
  14   2.0000      -1.117748       -30.4155 
  15   2.0000      -1.096038       -29.8247 
  16   2.0000      -1.021750       -27.8032 
  17   2.0000      -1.010705       -27.5027 
  18   2.0000      -0.830837       -22.6082 
  19   2.0000      -0.770931       -20.9781 
  20   2.0000      -0.769022       -20.9261 
  21   2.0000      -0.713447       -19.4139 
  22   2.0000      -0.677480       -18.4352 
  23   2.0000      -0.647268       -17.6131 
  24   2.0000      -0.628574       -17.1044 
  25   2.0000      -0.615833       -16.7577 
  26   2.0000      -0.598164       -16.2769 
  27   2.0000      -0.541614       -14.7381 
  28   2.0000      -0.534788       -14.5523 
  29   2.0000      -0.516669       -14.0593 
  30   2.0000      -0.501112       -13.6360 
  31   2.0000      -0.483245       -13.1498 
  32   2.0000      -0.470789       -12.8108 
  33   2.0000      -0.466166       -12.6850 
  34   2.0000      -0.458211       -12.4686 
  35   2.0000      -0.442424       -12.0390 
  36   2.0000      -0.426181       -11.5970 
  37   2.0000      -0.415353       -11.3023 
  38   2.0000      -0.412464       -11.2237 
  39   2.0000      -0.397131       -10.8065 
  40   2.0000      -0.393917       -10.7190 
  41   2.0000      -0.379345       -10.3225 
  42   2.0000      -0.369369       -10.0510 
  43   2.0000      -0.359685        -9.7875 
  44   2.0000      -0.350920        -9.5490 
  45   2.0000      -0.348809        -9.4916 
  46   2.0000      -0.343877        -9.3574 
  47   2.0000      -0.332018        -9.0347 
  48   2.0000      -0.319717        -8.6999 
  49   2.0000      -0.307723        -8.3736 
  50   2.0000      -0.279627        -7.6090 
  51   2.0000      -0.269800        -7.3416 
  52   2.0000      -0.259261        -7.0549 
  53   2.0000      -0.237069        -6.4510 
  54   0.0000       0.003068         0.0835 
  55   0.0000       0.012805         0.3484 
  56   0.0000       0.014268         0.3882 
  57   0.0000       0.026267         0.7148 
  58   0.0000       0.028884         0.7860 
  59   0.0000       0.032121         0.8741 
  60   0.0000       0.038189         1.0392 
  61   0.0000       0.041248         1.1224 
  62   0.0000       0.044687         1.2160 
  63   0.0000       0.055332         1.5057 
  64   0.0000       0.061077         1.6620 
*Only the first 10 virtual orbitals were printed.

                    ********************************
                    * MULLIKEN POPULATION ANALYSIS *
                    ********************************

-----------------------
MULLIKEN ATOMIC CHARGES
-----------------------
   0 C :   -0.449406
   1 O :   -0.173622
   2 C :    0.086840
   3 C :    0.108143
   4 O :   -0.240174
   5 C :   -0.403160
   6 O :   -0.193371
   7 C :    0.070494
   8 C :    0.068540
   9 O :   -0.229660
  10 C :   -0.102489
  11 C :   -0.251931
  12 C :   -0.220262
  13 C :   -0.256973
  14 H :    0.122147
  15 H :    0.131850
  16 H :    0.123962
  17 H :    0.132348
  18 H :    0.132355
  19 H :    0.130157
  20 H :    0.124572
  21 H :    0.129755
  22 H :    0.152709
  23 H :    0.141185
  24 H :    0.129651
  25 H :    0.163160
  26 H :    0.133274
  27 H :    0.143388
  28 H :    0.155274
  29 H :    0.141245
Sum of atomic charges:   -0.0000000

--------------------------------
MULLIKEN REDUCED ORBITAL CHARGES
--------------------------------
  0 C s       :     3.531283  s :     3.531283
      pz      :     0.876308  p :     2.818838
      px      :     0.971131
      py      :     0.971400
      dz2     :     0.021643  d :     0.099284
      dxz     :     0.023238
      dyz     :     0.019295
      dx2y2   :     0.013596
      dxy     :     0.021512

  1 O s       :     3.700613  s :     3.700613
      pz      :     1.436990  p :     4.442837
      px      :     1.256860
      py      :     1.748987
      dz2     :     0.008685  d :     0.030172
      dxz     :     0.006193
      dyz     :     0.005021
      dx2y2   :     0.004441
      dxy     :     0.005831

  2 C s       :     3.142344  s :     3.142344
      pz      :     1.007624  p :     2.703517
      px      :     0.696494
      py      :     0.999399
      dz2     :     0.011745  d :     0.067299
      dxz     :     0.010679
      dyz     :     0.009510
      dx2y2   :     0.015759
      dxy     :     0.019605

  3 C s       :     3.117392  s :     3.117392
      pz      :     0.851587  p :     2.706848
      px      :     0.836724
      py      :     1.018537
      dz2     :     0.010465  d :     0.067618
      dxz     :     0.016937
      dyz     :     0.012746
      dx2y2   :     0.019031
      dxy     :     0.008438

  4 O s       :     3.740788  s :     3.740788
      pz      :     1.502606  p :     4.468344
      px      :     1.240682
      py      :     1.725057
      dz2     :     0.006036  d :     0.031042
      dxz     :     0.011796
      dyz     :     0.005503
      dx2y2   :     0.003681
      dxy     :     0.004027

  5 C s       :     3.514577  s :     3.514577
      pz      :     0.655330  p :     2.790175
      px      :     1.170640
      py      :     0.964205
      dz2     :     0.022434  d :     0.098408
      dxz     :     0.015735
      dyz     :     0.027563
      dx2y2   :     0.011475
      dxy     :     0.021200

  6 O s       :     3.717871  s :     3.717871
      pz      :     1.471747  p :     4.445004
      px      :     1.783908
      py      :     1.189348
      dz2     :     0.007562  d :     0.030496
      dxz     :     0.004238
      dyz     :     0.009863
      dx2y2   :     0.003636
      dxy     :     0.005197

  7 C s       :     3.163190  s :     3.163190
      pz      :     0.915027  p :     2.699055
      px      :     1.064866
      py      :     0.719162
      dz2     :     0.014084  d :     0.067262
      dxz     :     0.006832
      dyz     :     0.012009
      dx2y2   :     0.016324
      dxy     :     0.018012

  8 C s       :     3.150010  s :     3.150010
      pz      :     0.908241  p :     2.713973
      px      :     1.083600
      py      :     0.722132
      dz2     :     0.014234  d :     0.067478
      dxz     :     0.006693
      dyz     :     0.012536
      dx2y2   :     0.015026
      dxy     :     0.018988

  9 O s       :     3.741128  s :     3.741128
      pz      :     1.486646  p :     4.457719
      px      :     1.802459
      py      :     1.168614
      dz2     :     0.007291  d :     0.030814
      dxz     :     0.004340
      dyz     :     0.010470
      dx2y2   :     0.003544
      dxy     :     0.005169

 10 C s       :     3.147914  s :     3.147914
      pz      :     1.043555  p :     2.918807
      px      :     0.959873
      py      :     0.915378
      dz2     :     0.006610  d :     0.035768
      dxz     :     0.007348
      dyz     :     0.006648
      dx2y2   :     0.006291
      dxy     :     0.008871

 11 C s       :     3.284029  s :     3.284029
      pz      :     1.013841  p :     2.930159
      px      :     1.021402
      py      :     0.894916
      dz2     :     0.008425  d :     0.037743
      dxz     :     0.006758
      dyz     :     0.007260
      dx2y2   :     0.007504
      dxy     :     0.007796

 12 C s       :     3.244119  s :     3.244119
      pz      :     0.971803  p :     2.939017
      px      :     0.968786
      py      :     0.998428
      dz2     :     0.003280  d :     0.037126
      dxz     :     0.009989
      dyz     :     0.010555
      dx2y2   :     0.003779
      dxy     :     0.009522

 13 C s       :     3.413185  s :     3.413185
      pz      :     0.962178  p :     2.807990
      px      :     0.973251
      py      :     0.872561
      dz2     :     0.007259  d :     0.035798
      dxz     :     0.007201
      dyz     :     0.006620
      dx2y2   :     0.004977
      dxy     :     0.009740

 14 H s       :     0.867453  s :     0.867453
      pz      :     0.002179  p :     0.010400
      px      :     0.002959
      py      :     0.005262

 15 H s       :     0.857634  s :     0.857634
      pz      :     0.005608  p :     0.010516
      px      :     0.001584
      py      :     0.003324

 16 H s       :     0.865708  s :     0.865708
      pz      :     0.002195  p :     0.010330
      px      :     0.001600
      py      :     0.006535

 17 H s       :     0.857161  s :     0.857161
      pz      :     0.002741  p :     0.010491
      px      :     0.005499
      py      :     0.002252

 18 H s       :     0.857253  s :     0.857253
      pz      :     0.002594  p :     0.010392
      px      :     0.006148
      py      :     0.001651

 19 H s       :     0.859337  s :     0.859337
      pz      :     0.002900  p :     0.010506
      px      :     0.004144
      py      :     0.003462

 20 H s       :     0.865044  s :     0.865044
      pz      :     0.002517  p :     0.010384
      px      :     0.005816
      py      :     0.002051

 21 H s       :     0.859769  s :     0.859769
      pz      :     0.002777  p :     0.010476
      px      :     0.004667
      py      :     0.003033

 22 H s       :     0.836357  s :     0.836357
      pz      :     0.005673  p :     0.010935
      px      :     0.002988
      py      :     0.002274

 23 H s       :     0.847821  s :     0.847821
      pz      :     0.003814  p :     0.010994
      px      :     0.003647
      py      :     0.003533

 24 H s       :     0.859481  s :     0.859481
      pz      :     0.002290  p :     0.010868
      px      :     0.005694
      py      :     0.002884

 25 H s       :     0.825887  s :     0.825887
      pz      :     0.005692  p :     0.010953
      px      :     0.003101
      py      :     0.002160

 26 H s       :     0.855845  s :     0.855845
      pz      :     0.003777  p :     0.010881
      px      :     0.003721
      py      :     0.003384

 27 H s       :     0.845739  s :     0.845739
      pz      :     0.003745  p :     0.010873
      px      :     0.003093
      py      :     0.004034

 28 H s       :     0.833744  s :     0.833744
      pz      :     0.005822  p :     0.010982
      px      :     0.002875
      py      :     0.002285

 29 H s       :     0.847861  s :     0.847861
      pz      :     0.002316  p :     0.010894
      px      :     0.004826
      py      :     0.003752



                     *******************************
                     * LOEWDIN POPULATION ANALYSIS *
                     *******************************

----------------------
LOEWDIN ATOMIC CHARGES
----------------------
   0 C :    0.082186
   1 O :   -0.373473
   2 C :   -0.042328
   3 C :   -0.047821
   4 O :   -0.361707
   5 C :    0.084799
   6 O :   -0.367818
   7 C :   -0.048188
   8 C :   -0.052831
   9 O :   -0.364363
  10 C :   -0.214502
  11 C :   -0.256916
  12 C :   -0.256984
  13 C :   -0.214518
  14 H :    0.143059
  15 H :    0.151805
  16 H :    0.145090
  17 H :    0.148340
  18 H :    0.147785
  19 H :    0.147527
  20 H :    0.143657
  21 H :    0.149333
  22 H :    0.169478
  23 H :    0.164356
  24 H :    0.139059
  25 H :    0.162907
  26 H :    0.141950
  27 H :    0.148158
  28 H :    0.167391
  29 H :    0.164567

-------------------------------
LOEWDIN REDUCED ORBITAL CHARGES
-------------------------------
  0 C s       :     2.801897  s :     2.801897
      pz      :     0.873686  p :     2.894331
      px      :     0.973080
      py      :     1.047566
      dz2     :     0.048847  d :     0.221585
      dxz     :     0.051264
      dyz     :     0.043678
      dx2y2   :     0.026938
      dxy     :     0.050858

  1 O s       :     3.478700  s :     3.478700
      pz      :     1.554031  p :     4.826622
      px      :     1.442971
      py      :     1.829620
      dz2     :     0.018832  d :     0.068151
      dxz     :     0.016176
      dyz     :     0.009080
      dx2y2   :     0.011441
      dxy     :     0.012622

  2 C s       :     2.861571  s :     2.861571
      pz      :     1.083760  p :     3.036135
      px      :     0.874077
      py      :     1.078298
      dz2     :     0.025920  d :     0.144622
      dxz     :     0.021479
      dyz     :     0.021904
      dx2y2   :     0.032943
      dxy     :     0.042376

  3 C s       :     2.861055  s :     2.861055
      pz      :     0.989694  p :     3.041251
      px      :     0.967823
      py      :     1.083735
      dz2     :     0.022734  d :     0.145515
      dxz     :     0.037507
      dyz     :     0.029151
      dx2y2   :     0.040451
      dxy     :     0.015672

  4 O s       :     3.484657  s :     3.484657
      pz      :     1.607790  p :     4.807482
      px      :     1.411944
      py      :     1.787748
      dz2     :     0.010394  d :     0.069568
      dxz     :     0.027152
      dyz     :     0.010098
      dx2y2   :     0.010370
      dxy     :     0.011554

  5 C s       :     2.807007  s :     2.807007
      pz      :     0.830589  p :     2.889253
      px      :     1.086212
      py      :     0.972452
      dz2     :     0.053159  d :     0.218942
      dxz     :     0.030666
      dyz     :     0.061597
      dx2y2   :     0.021036
      dxy     :     0.052484

  6 O s       :     3.485627  s :     3.485627
      pz      :     1.572440  p :     4.813501
      px      :     1.862966
      py      :     1.378095
      dz2     :     0.014506  d :     0.068690
      dxz     :     0.006985
      dyz     :     0.024277
      dx2y2   :     0.010888
      dxy     :     0.012033

  7 C s       :     2.862261  s :     2.862261
      pz      :     1.050546  p :     3.041346
      px      :     1.097141
      py      :     0.893659
      dz2     :     0.034299  d :     0.144580
      dxz     :     0.013332
      dyz     :     0.025805
      dx2y2   :     0.033190
      dxy     :     0.037955

  8 C s       :     2.862248  s :     2.862248
      pz      :     1.048265  p :     3.045451
      px      :     1.106902
      py      :     0.890284
      dz2     :     0.034526  d :     0.145131
      dxz     :     0.012881
      dyz     :     0.027127
      dx2y2   :     0.030365
      dxy     :     0.040233

  9 O s       :     3.482155  s :     3.482155
      pz      :     1.581401  p :     4.812744
      px      :     1.865602
      py      :     1.365742
      dz2     :     0.013738  d :     0.069464
      dxz     :     0.007145
      dyz     :     0.025448
      dx2y2   :     0.011186
      dxy     :     0.011948

 10 C s       :     2.903954  s :     2.903954
      pz      :     1.103880  p :     3.233574
      px      :     1.050658
      py      :     1.079035
      dz2     :     0.013411  d :     0.076974
      dxz     :     0.014248
      dyz     :     0.014330
      dx2y2   :     0.015298
      dxy     :     0.019688

 11 C s       :     2.909361  s :     2.909361
      pz      :     1.097932  p :     3.267067
      px      :     1.100572
      py      :     1.068563
      dz2     :     0.016582  d :     0.080488
      dxz     :     0.013519
      dyz     :     0.017238
      dx2y2   :     0.016413
      dxy     :     0.016735

 12 C s       :     2.913018  s :     2.913018
      pz      :     1.094939  p :     3.264917
      px      :     1.086083
      py      :     1.083895
      dz2     :     0.006307  d :     0.079049
      dxz     :     0.021955
      dyz     :     0.022614
      dx2y2   :     0.007377
      dxy     :     0.020797

 13 C s       :     2.902247  s :     2.902247
      pz      :     1.084812  p :     3.235593
      px      :     1.094229
      py      :     1.056553
      dz2     :     0.014105  d :     0.076678
      dxz     :     0.015283
      dyz     :     0.015210
      dx2y2   :     0.010980
      dxy     :     0.021100

 14 H s       :     0.819903  s :     0.819903
      pz      :     0.006304  p :     0.037038
      px      :     0.010556
      py      :     0.020178

 15 H s       :     0.811205  s :     0.811205
      pz      :     0.020687  p :     0.036990
      px      :     0.005088
      py      :     0.011215

 16 H s       :     0.817635  s :     0.817635
      pz      :     0.006829  p :     0.037275
      px      :     0.005055
      py      :     0.025391

 17 H s       :     0.814903  s :     0.814903
      pz      :     0.009725  p :     0.036757
      px      :     0.020247
      py      :     0.006786

 18 H s       :     0.814757  s :     0.814757
      pz      :     0.008077  p :     0.037458
      px      :     0.023973
      py      :     0.005408

 19 H s       :     0.815697  s :     0.815697
      pz      :     0.009282  p :     0.036777
      px      :     0.015215
      py      :     0.012280

 20 H s       :     0.819145  s :     0.819145
      pz      :     0.007854  p :     0.037198
      px      :     0.022428
      py      :     0.006916

 21 H s       :     0.813864  s :     0.813864
      pz      :     0.008930  p :     0.036803
      px      :     0.017346
      py      :     0.010527

 22 H s       :     0.792444  s :     0.792444
      pz      :     0.021373  p :     0.038079
      px      :     0.010158
      py      :     0.006548

 23 H s       :     0.797947  s :     0.797947
      pz      :     0.012646  p :     0.037697
      px      :     0.012793
      py      :     0.012258

 24 H s       :     0.823468  s :     0.823468
      pz      :     0.006859  p :     0.037473
      px      :     0.021174
      py      :     0.009440

 25 H s       :     0.798578  s :     0.798578
      pz      :     0.021891  p :     0.038515
      px      :     0.010128
      py      :     0.006496

 26 H s       :     0.820600  s :     0.820600
      pz      :     0.013310  p :     0.037451
      px      :     0.012953
      py      :     0.011187

 27 H s       :     0.814260  s :     0.814260
      pz      :     0.013113  p :     0.037582
      px      :     0.010305
      py      :     0.014164

 28 H s       :     0.794216  s :     0.794216
      pz      :     0.021893  p :     0.038392
      px      :     0.009208
      py      :     0.007292

 29 H s       :     0.797808  s :     0.797808
      pz      :     0.006678  p :     0.037625
      px      :     0.017785
      py      :     0.013162



                      *****************************
                      * MAYER POPULATION ANALYSIS *
                      *****************************

  NA   - Mulliken gross atomic population
  ZA   - Total nuclear charge
  QA   - Mulliken gross atomic charge
  VA   - Mayer's total valence
  BVA  - Mayer's bonded valence
  FA   - Mayer's free valence

  ATOM       NA         ZA         QA         VA         BVA        FA
  0 C      6.4494     6.0000    -0.4494     4.7593     4.7593    -0.0000
  1 O      8.1736     8.0000    -0.1736     1.6843     1.6843    -0.0000
  2 C      5.9132     6.0000     0.0868     3.3977     3.3977    -0.0000
  3 C      5.8919     6.0000     0.1081     3.2785     3.2785    -0.0000
  4 O      8.2402     8.0000    -0.2402     1.7598     1.7598    -0.0000
  5 C      6.4032     6.0000    -0.4032     4.6279     4.6279    -0.0000
  6 O      8.1934     8.0000    -0.1934     1.6303     1.6303    -0.0000
  7 C      5.9295     6.0000     0.0705     3.3710     3.3710    -0.0000
  8 C      5.9315     6.0000     0.0685     3.3881     3.3881    -0.0000
  9 O      8.2297     8.0000    -0.2297     1.7199     1.7199    -0.0000
 10 C      6.1025     6.0000    -0.1025     3.2836     3.2836     0.0000
 11 C      6.2519     6.0000    -0.2519     3.5214     3.5214    -0.0000
 12 C      6.2203     6.0000    -0.2203     3.6238     3.6238    -0.0000
 13 C      6.2570     6.0000    -0.2570     3.4442     3.4442    -0.0000
 14 H      0.8779     1.0000     0.1221     0.9420     0.9420    -0.0000
 15 H      0.8682     1.0000     0.1318     0.9454     0.9454    -0.0000
 16 H      0.8760     1.0000     0.1240     0.9391     0.9391    -0.0000
 17 H      0.8677     1.0000     0.1323     0.9455     0.9455     0.0000
 18 H      0.8676     1.0000     0.1324     0.9408     0.9408     0.0000
 19 H      0.8698     1.0000     0.1302     0.9451     0.9451     0.0000
 20 H      0.8754     1.0000     0.1246     0.9419     0.9419     0.0000
 21 H      0.8702     1.0000     0.1298     0.9463     0.9463     0.0000
 22 H      0.8473     1.0000     0.1527     0.9406     0.9406    -0.0000
 23 H      0.8588     1.0000     0.1412     0.9478     0.9478     0.0000
 24 H      0.8703     1.0000     0.1297     0.9445     0.9445    -0.0000
 25 H      0.8368     1.0000     0.1632     0.9383     0.9383    -0.0000
 26 H      0.8667     1.0000     0.1333     0.9431     0.9431    -0.0000
 27 H      0.8566     1.0000     0.1434     0.9430     0.9430     0.0000
 28 H      0.8447     1.0000     0.1553     0.9408     0.9408    -0.0000
 29 H      0.8588     1.0000     0.1412     0.9509     0.9509     0.0000

  Mayer bond orders larger than 0.100000
B(  0-C ,  1-O ) :   1.8387 B(  0-C ,  2-C ) :   0.1310 B(  0-C ,  4-O ) :   1.4395 
B(  0-C ,  5-C ) :   0.9428 B(  0-C ,  9-O ) :  -0.2008 B(  0-C , 12-C ) :  -0.1055 
B(  0-C , 13-C ) :   1.0718 B(  0-C , 28-H ) :  -0.1021 B(  1-O ,  2-C ) :   0.6872 
B(  1-O ,  3-C ) :  -0.1079 B(  1-O ,  5-C ) :  -0.4261 B(  1-O , 11-C ) :  -0.1274 
B(  1-O , 13-C ) :  -0.1883 B(  2-C ,  3-C ) :   0.8708 B(  2-C , 14-H ) :   0.9978 
B(  2-C , 15-H ) :   0.9852 B(  3-C ,  4-O ) :   0.6708 B(  3-C , 16-H ) :   0.9763 
B(  3-C , 17-H ) :   0.9980 B(  4-O ,  5-C ) :  -0.1057 B(  5-C ,  6-O ) :   1.4918 
B(  5-C ,  9-O ) :   1.5646 B(  5-C , 10-C ) :   1.0005 B(  6-O ,  7-C ) :   0.7284 
B(  6-O , 10-C ) :  -0.2578 B(  6-O , 13-C ) :  -0.1699 B(  7-C ,  8-C ) :   0.8419 
B(  7-C , 18-H ) :   0.9808 B(  7-C , 19-H ) :   0.9973 B(  8-C ,  9-O ) :   0.7014 
B(  8-C , 20-H ) :   0.9937 B(  8-C , 21-H ) :   0.9965 B(  9-O , 10-C ) :  -0.1133 
B( 10-C , 11-C ) :   0.9380 B( 10-C , 22-H ) :   0.9965 B( 10-C , 23-H ) :   0.9489 
B( 11-C , 12-C ) :   0.9127 B( 11-C , 24-H ) :   0.9678 B( 11-C , 25-H ) :   0.9980 
B( 12-C , 13-C ) :   0.9113 B( 12-C , 26-H ) :   0.9636 B( 12-C , 27-H ) :   0.9791 
B( 13-C , 28-H ) :   1.0341 B( 13-C , 29-H ) :   1.0069 

-------
TIMINGS
-------

Total SCF time: 0 days 0 hours 2 min 22 sec 

Total time                  ....     142.024 sec
Sum of individual times     ....     141.970 sec  (100.0%)

SCF preparation             ....       0.061 sec  (  0.0%)
Fock matrix formation       ....     141.487 sec  ( 99.6%)
  Startup                   ....       0.005 sec  (  0.0% of F)
  Split-RI-J                ....       9.414 sec  (  6.7% of F)
  Chain of spheres X        ....     115.301 sec  ( 81.5% of F)
  XC integration            ....      16.636 sec  ( 11.8% of F)
    Basis function eval.    ....       5.523 sec  ( 33.2% of XC)
    Density eval.           ....       3.498 sec  ( 21.0% of XC)
    XC-Functional eval.     ....       0.314 sec  (  1.9% of XC)
    XC-Potential eval.      ....       6.682 sec  ( 40.2% of XC)
Diagonalization             ....       0.000 sec  (  0.0%)
Density matrix formation    ....       0.027 sec  (  0.0%)
Total Energy calculation    ....       0.028 sec  (  0.0%)
Population analysis         ....       0.009 sec  (  0.0%)
Orbital Transformation      ....       0.021 sec  (  0.0%)
Orbital Orthonormalization  ....       0.000 sec  (  0.0%)
DIIS solution               ....       0.089 sec  (  0.1%)
SOSCF solution              ....       0.248 sec  (  0.2%)
Finished LeanSCF after 142.0 sec

Maximum memory used throughout the entire LEANSCF-calculation: 53.0 MB

------------------------------------------------------------------------------
                         ORCA PROPERTY INTEGRAL CALCULATIONS
------------------------------------------------------------------------------

GBWName                                   ... opt.gbw
Number of atoms                           ...     30
Number of basis functions                 ...    332
Max core memory                           ...   1024 MB

Dipole integrals                          ... YES
Quadrupole integrals                      ...  NO
Linear momentum integrals                 ...  NO
Angular momentum integrals                ...  NO
Higher moments length integrals           ...  NO
Higher moments velocity integrals         ...  NO
Kinetic energy integrals                  ...  NO
GIAO right hand sides                     ...  NO
GIAO dipole derivative integrals          ...  NO
[...]
      pz      :     0.987307  p :     3.028326
      px      :     1.107352
      py      :     0.933667
      dz2     :     0.026131  d :     0.128664
      dxz     :     0.013423
      dyz     :     0.036317
      dx2y2   :     0.015986
      dxy     :     0.036806

  9 O s       :     3.498806  s :     3.498806
      pz      :     1.662380  p :     4.853337
      px      :     1.849335
      py      :     1.341621
      dz2     :     0.008538  d :     0.061503
      dxz     :     0.005779
      dyz     :     0.025131
      dx2y2   :     0.009639
      dxy     :     0.012416

 10 C s       :     2.894648  s :     2.894648
      pz      :     1.088560  p :     3.231878
      px      :     1.077084
      py      :     1.066234
      dz2     :     0.017486  d :     0.076561
      dxz     :     0.010872
      dyz     :     0.012618
      dx2y2   :     0.016414
      dxy     :     0.019171

 11 C s       :     2.903862  s :     2.903862
      pz      :     1.082945  p :     3.263113
      px      :     1.113042
      py      :     1.067126
      dz2     :     0.020182  d :     0.079959
      dxz     :     0.013360
      dyz     :     0.015931
      dx2y2   :     0.016780
      dxy     :     0.013705

 12 C s       :     2.903775  s :     2.903775
      pz      :     1.082897  p :     3.263120
      px      :     1.072044
      py      :     1.108179
      dz2     :     0.019921  d :     0.079983
      dxz     :     0.017960
      dyz     :     0.011541
      dx2y2   :     0.018640
      dxy     :     0.011922

 13 C s       :     2.894069  s :     2.894069
      pz      :     1.085202  p :     3.231312
      px      :     1.081847
      py      :     1.064263
      dz2     :     0.016633  d :     0.076432
      dxz     :     0.008970
      dyz     :     0.015867
      dx2y2   :     0.013722
      dxy     :     0.021240

 14 H s       :     0.815959  s :     0.815959
      pz      :     0.009615  p :     0.038571
      px      :     0.016965
      py      :     0.011991

 15 H s       :     0.801723  s :     0.801723
      pz      :     0.016458  p :     0.040491
      px      :     0.008695
      py      :     0.015338

 16 H s       :     0.813080  s :     0.813080
      pz      :     0.006125  p :     0.038985
      px      :     0.005354
      py      :     0.027506

 17 H s       :     0.818535  s :     0.818535
      pz      :     0.008324  p :     0.038627
      px      :     0.021717
      py      :     0.008586

 18 H s       :     0.797507  s :     0.797507
      pz      :     0.013552  p :     0.040997
      px      :     0.022033
      py      :     0.005412

 19 H s       :     0.813539  s :     0.813539
      pz      :     0.011412  p :     0.038645
      px      :     0.016466
      py      :     0.010767

 20 H s       :     0.817723  s :     0.817723
      pz      :     0.008790  p :     0.038691
      px      :     0.018052
      py      :     0.011848

 21 H s       :     0.813299  s :     0.813299
      pz      :     0.006050  p :     0.038798
      px      :     0.022244
      py      :     0.010504

 22 H s       :     0.793035  s :     0.793035
      pz      :     0.007056  p :     0.039997
      px      :     0.022371
      py      :     0.010570

 23 H s       :     0.789902  s :     0.789902
      pz      :     0.025249  p :     0.040388
      px      :     0.008242
      py      :     0.006896

 24 H s       :     0.823026  s :     0.823026
      pz      :     0.007652  p :     0.039152
      px      :     0.022498
      py      :     0.009002

 25 H s       :     0.801147  s :     0.801147
      pz      :     0.013237  p :     0.040219
      px      :     0.015472
      py      :     0.011509

 26 H s       :     0.801161  s :     0.801161
      pz      :     0.013225  p :     0.040216
      px      :     0.014618
      py      :     0.012374

 27 H s       :     0.822903  s :     0.822903
      pz      :     0.008042  p :     0.039139
      px      :     0.006809
      py      :     0.024288

 28 H s       :     0.789568  s :     0.789568
      pz      :     0.024695  p :     0.040418
      px      :     0.006838
      py      :     0.008885

 29 H s       :     0.792028  s :     0.792028
      pz      :     0.007026  p :     0.040061
      px      :     0.015449
      py      :     0.017586



                      *****************************
                      * MAYER POPULATION ANALYSIS *
                      *****************************

  NA   - Mulliken gross atomic population
  ZA   - Total nuclear charge
  QA   - Mulliken gross atomic charge
  VA   - Mayer's total valence
  BVA  - Mayer's bonded valence
  FA   - Mayer's free valence

  ATOM       NA         ZA         QA         VA         BVA        FA
  0 C      6.0463     6.0000    -0.0463     4.2329     4.2329    -0.0000
  1 O      8.2644     8.0000    -0.2644     1.7299     1.7299     0.0000
  2 C      5.9140     6.0000     0.0860     3.3231     3.3231    -0.0000
  3 C      5.8812     6.0000     0.1188     3.2555     3.2555     0.0000
  4 O      8.2819     8.0000    -0.2819     1.7196     1.7196    -0.0000
  5 C      6.1079     6.0000    -0.1079     4.2324     4.2324     0.0000
  6 O      8.2684     8.0000    -0.2684     1.7220     1.7220    -0.0000
  7 C      5.9068     6.0000     0.0932     3.2958     3.2958    -0.0000
  8 C      5.8848     6.0000     0.1152     3.2825     3.2825    -0.0000
  9 O      8.2893     8.0000    -0.2893     1.6917     1.6917    -0.0000
 10 C      6.4134     6.0000    -0.4134     3.3886     3.3886    -0.0000
 11 C      6.2793     6.0000    -0.2793     3.5884     3.5884     0.0000
 12 C      6.2296     6.0000    -0.2296     3.5082     3.5082    -0.0000
 13 C      6.5341     6.0000    -0.5341     3.4722     3.4722    -0.0000
 14 H      0.8692     1.0000     0.1308     0.9447     0.9447    -0.0000
 15 H      0.8435     1.0000     0.1565     0.9350     0.9350    -0.0000
 16 H      0.8696     1.0000     0.1304     0.9409     0.9409     0.0000
 17 H      0.8700     1.0000     0.1300     0.9420     0.9420    -0.0000
 18 H      0.8383     1.0000     0.1617     0.9338     0.9338    -0.0000
 19 H      0.8666     1.0000     0.1334     0.9457     0.9457     0.0000
 20 H      0.8693     1.0000     0.1307     0.9404     0.9404    -0.0000
 21 H      0.8699     1.0000     0.1301     0.9439     0.9439    -0.0000
 22 H      0.8512     1.0000     0.1488     0.9470     0.9470    -0.0000
 23 H      0.8408     1.0000     0.1592     0.9421     0.9421     0.0000
 24 H      0.8694     1.0000     0.1306     0.9439     0.9439    -0.0000
 25 H      0.8412     1.0000     0.1588     0.9375     0.9375    -0.0000
 26 H      0.8418     1.0000     0.1582     0.9378     0.9378     0.0000
 27 H      0.8692     1.0000     0.1308     0.9440     0.9440     0.0000
 28 H      0.8404     1.0000     0.1596     0.9420     0.9420     0.0000
 29 H      0.8482     1.0000     0.1518     0.9462     0.9462     0.0000

  Mayer bond orders larger than 0.100000
B(  0-C ,  1-O ) :   1.8219 B(  0-C ,  4-O ) :   1.4443 B(  0-C ,  5-C ) :   0.6577 
B(  0-C ,  6-O ) :  -0.2082 B(  0-C , 13-C ) :   0.8546 B(  0-C , 29-H ) :  -0.1314 
B(  1-O ,  2-C ) :   0.7182 B(  1-O ,  5-C ) :  -0.2221 B(  1-O , 11-C ) :  -0.1487 
B(  1-O , 12-C ) :   0.1014 B(  1-O , 13-C ) :  -0.5420 B(  2-C ,  3-C ) :   0.8149 
B(  2-C , 14-H ) :   0.9927 B(  2-C , 15-H ) :   0.9994 B(  3-C ,  4-O ) :   0.6498 
B(  3-C , 16-H ) :   1.0162 B(  3-C , 17-H ) :   0.9800 B(  4-O , 13-C ) :  -0.1430 
B(  5-C ,  6-O ) :   1.8177 B(  5-C ,  9-O ) :   1.4761 B(  5-C , 10-C ) :   0.8286 
B(  5-C , 22-H ) :  -0.1102 B(  6-O ,  7-C ) :   0.7140 B(  6-O , 10-C ) :  -0.5452 
B(  6-O , 11-C ) :   0.1062 B(  6-O , 12-C ) :  -0.1601 B(  7-C ,  8-C ) :   0.8276 
B(  7-C , 18-H ) :   0.9863 B(  7-C , 19-H ) :   0.9978 B(  8-C ,  9-O ) :   0.6463 
B(  8-C , 20-H ) :   0.9770 B(  8-C , 21-H ) :   1.0027 B(  9-O , 10-C ) :  -0.1863 
B( 10-C , 11-C ) :   0.8583 B( 10-C , 13-C ) :   0.1726 B( 10-C , 22-H ) :   1.0862 
B( 10-C , 23-H ) :   1.0458 B( 11-C , 12-C ) :   0.9177 B( 11-C , 24-H ) :   0.9809 
B( 11-C , 25-H ) :   1.0018 B( 12-C , 13-C ) :   0.8258 B( 12-C , 26-H ) :   0.9950 
B( 12-C , 27-H ) :   0.9785 B( 13-C , 28-H ) :   1.0366 B( 13-C , 29-H ) :   1.1149 


-------
TIMINGS
-------

Total SCF time: 0 days 0 hours 1 min 28 sec 

Total time                  ....      88.930 sec
Sum of individual times     ....      88.884 sec  ( 99.9%)

SCF preparation             ....       0.094 sec  (  0.1%)
Fock matrix formation       ....      88.618 sec  ( 99.6%)
  Startup                   ....       0.005 sec  (  0.0% of F)
  Split-RI-J                ....       4.451 sec  (  5.0% of F)
  Chain of spheres X        ....      77.258 sec  ( 87.2% of F)
  XC integration            ....       6.878 sec  (  7.8% of F)
    Basis function eval.    ....       2.448 sec  ( 35.6% of XC)
    Density eval.           ....       1.550 sec  ( 22.5% of XC)
    XC-Functional eval.     ....       0.141 sec  (  2.0% of XC)
    XC-Potential eval.      ....       2.568 sec  ( 37.3% of XC)
Diagonalization             ....       0.000 sec  (  0.0%)
Density matrix formation    ....       0.008 sec  (  0.0%)
Total Energy calculation    ....       0.010 sec  (  0.0%)
Population analysis         ....       0.085 sec  (  0.1%)
Orbital Transformation      ....       0.010 sec  (  0.0%)
Orbital Orthonormalization  ....       0.000 sec  (  0.0%)
DIIS solution               ....       0.015 sec  (  0.0%)
SOSCF solution              ....       0.044 sec  (  0.0%)
Finished LeanSCF after  89.0 sec

Maximum memory used throughout the entire LEANSCF-calculation: 56.5 MB

------------------------------------------------------------------------------
                         ORCA PROPERTY INTEGRAL CALCULATIONS
------------------------------------------------------------------------------

GBWName                                   ... opt.gbw
Number of atoms                           ...     30
Number of basis functions                 ...    332
Max core memory                           ...   1024 MB

Dipole integrals                          ... YES
Quadrupole integrals                      ...  NO
Linear momentum integrals                 ...  NO
Angular momentum integrals                ...  NO
Higher moments length integrals           ...  NO
Higher moments velocity integrals         ...  NO
Kinetic energy integrals                  ...  NO
GIAO right hand sides                     ...  NO
GIAO dipole derivative integrals          ...  NO
SOC integrals                             ...  NO
EPR diamagnetic integrals (GIAO)          ...  NO
EPR gauge integrals                       ...  NO
Field gradient integrals                  ...  NO (   0 nuclei)
Spin-dipole/Fermi contact integrals       ...  NO (   0 nuclei)
Contact density integrals                 ...  NO (   0 nuclei)
Nucleus-orbit integrals                   ...  NO (   0 nuclei)
Geometric perturbations                   ... YES (  30 nuclei)

Choice of electric origin   ... Center of mass
Position of electric origin ... ( -0.1204,  0.1163, -0.0070) 
Choice of magnetic origin   ... GIAO
Position of magnetic origin ... (  0.0000,  0.0000,  0.0000) 

Calculating integrals                     ... Electric Dipole (Length)     done (  0.0 sec)
Calculating integrals                     ... Geometrical perturbation right hand sides

-----------------------
GEOMETRIC PERTURBATIONS (30 nuclei)
-----------------------

MaxCore                            ...   1024 MB
Number of batches                  ...      1

BATCH   0: Atoms    0 -   29 ( 90 perturbations)
   => H(core) and overlap derivative integrals     ... done (     0.5 sec)
   => Making and storing internal U-coefficients   ... done (     0.0 sec)
   => RI-J derivative integrals                    ... done (     9.7 sec)
   => RI-J response operators                      ... done (     6.1 sec)
   => Chain of spheres derivative integrals        ... done (    65.3 sec)
   => Chain of spheres response operator           ... done (    44.9 sec)
   => XC derivative integrals                      ... done (   288.8 sec)
   => XC response operators                        ... done (    87.7 sec)
   => Completing and storing right hand sides      ... done (     0.1 sec)
   => Total time for right hand sides = 504.0 sec

  geometrical perturbations done (504.0 sec)

Property integrals calculated in 504.1 sec

Maximum memory used throughout the entire PROPINT-calculation: 571.7 MB


-------------------------------------------------------------------------------
                          DFT DISPERSION CORRECTION                            
                                                                               
                                DFTD4 V3.4.0                                   
-------------------------------------------------------------------------------
The B3LYP functional is recognized
Active option DFTDOPT                   ...         5   

-------------------------   ----------------
Dispersion correction           -0.056403819
-------------------------   ----------------


-------------------------   --------------------
FINAL SINGLE POINT ENERGY      -691.249885918290
-------------------------   --------------------

                                *** OPTIMIZATION RUN DONE ***

------------------------------------------------------------------------------
                            ORCA SCF RESPONSE CALCULATION
------------------------------------------------------------------------------

GBWName                                 ... opt.gbw
Number of atoms                         ...     30
Number of basis functions               ...    332
Max core memory                         ...   1024 MB

Electric field perturbation             ...  NO
Quadrupolar field perturbation          ...  NO
Magnetic field perturbation (no GIAO)   ...  NO
Magnetic field perturbation (with GIAO) ...  NO
Linear momentum (velocity) perturbation ...  NO
Spin-orbit coupling perturbation        ...  NO
Choice of electric origin               ... Center of mass
Position of electric origin             ...    -0.120450     0.116332    -0.006985
Choice of magnetic origin               ... GIAO
Position of magnetic origin             ...     0.000000     0.000000     0.000000
Nuclear geometric perturbations         ... YES (  90 perturbations)
Nucleus-orbit perturbations             ...  NO (   0 perturbations)
Spin-dipole/Fermi contact perturbations ...  NO (   0 perturbations)

Total number of real perturbations      ...     90
Total number of imaginary perturbations ...      0
Total number of triplet perturbations   ...      0
Total number of SOC perturbations       ...      0


                                **********************
                                * REAL PERTURBATIONS *
                                **********************



-------------------
SHARK CP-SCF DRIVER
-------------------

Dimension of the orbital basis          ...    332
Dimension of the CPSCF-problem          ...  15012
Number of operators                     ...      1
Max. number of iterations               ...    128
Convergence Tolerance                   ... 1.0e-04
Number of perturbations                 ...     90
Perturbation type                       ... REAL

----------------------------
POPLE LINEAR EQUATION SOLVER
----------------------------

  ITERATION   0:   ||err||_max =   4.1471e-01 (  37.3 sec   0/ 90 done)
  ITERATION   1:   ||err||_max =   2.9802e-02 (  42.8 sec   0/ 90 done)
  ITERATION   2:   ||err||_max =   1.0098e-02 (  42.8 sec   0/ 90 done)
  ITERATION   3:   ||err||_max =   3.2770e-03 (  41.6 sec   0/ 90 done)
  ITERATION   4:   ||err||_max =   1.1619e-03 (  41.9 sec   1/ 90 done)
  ITERATION   5:   ||err||_max =   2.6872e-04 (  44.0 sec  51/ 90 done)
  ITERATION   6:   ||err||_max =   7.9134e-05 (  25.8 sec  90/ 90 done)

CP-SCF equations solved in 276.3 sec
Response densities calculated in   0.0 sec

Maximum memory used throughout the entire SCFRESP-calculation: 567.3 MB

------------------------------------------------------------------------------
                              ORCA PROPERTY CALCULATIONS
------------------------------------------------------------------------------

GBWName                                 ... opt.gbw
Number of atoms                         ...     30
Number of basis functions               ...    332
Max core memory                         ...   1024 MB

Electric properties:
Dipole moment                           ... YES
Quadrupole moment                       ...  NO
Static polarizability (Dipole/Dipole)   ...  NO
Static polarizability (Dipole/Quad.)    ...  NO
Static polarizability (Quad./Quad.)     ...  NO
Static polarizability (Velocity)        ...  NO

Atomic electric properties:
Dipole moment                           ...  NO
Quadrupole moment                       ...  NO
Static polarizability                   ...  NO

Choice of electric origin               ... Center of mass
Position of electric origin             ...    -0.120450     0.116332    -0.006985

General magnetic properties:
Magnetizability                         ...  NO

EPR properties:
g-Tensor (aka g-matrix)                 ...  NO
Zero-Field splitting spin-orbit         ...  NO
Zero-field splitting spin-spin          ...  NO
Hyperfine couplings                     ...  NO (   0 nuclei)
Quadrupole couplings                    ...  NO (   0 nuclei)
Contact density                         ...  NO (   0 nuclei)

NMR properties:
Chemical shifts                         ...  NO (   0 nuclei)
Spin-rotation constants                 ...  NO (   0 nuclei)
Spin-spin couplings                     ...  NO (   0 nuclei,    0 pairs)

Choice of magnetic origin               ... GIAO
Position of magnetic origin             ...     0.000000     0.000000     0.000000

Properties with geometric perturbations:
SCF Hessian                             ... YES
IR spectrum                             ... YES
VCD spectrum                            ...  NO
X-ray spectroscopy properties:
SCF XES/XAS/RIXS spectra                ...  NO


-------------
DIPOLE MOMENT
-------------

Method             : SCF
Type of density    : Electron Density
Multiplicity       :   1
Irrep              :   0
Energy             :  -691.1934820993844824 Eh
Relativity type    : 
Basis              : AO
                                X                 Y                 Z
Electronic contribution:     -1.903387056       2.060805754      -0.078561216
Nuclear contribution   :      1.562031131      -1.421908172       0.118097653
                        -----------------------------------------
Total Dipole Moment    :     -0.341355925       0.638897582       0.039536437
                        -----------------------------------------
Magnitude (a.u.)       :      0.725449597
Magnitude (Debye)      :      1.843946334



--------------------
Rotational spectrum 
--------------------
 
Rotational constants in cm-1:             0.031197             0.027760             0.020452 
Rotational constants in MHz :           935.259810           832.231674           613.146833 

Dipole components along the rotational axes: 
x,y,z [a.u.] :    -0.720670     0.075317     0.035196 
x,y,z [Debye]:    -1.831798     0.191442     0.089462 

 

Dipole moment calculation done in   0.0 sec 

-----------
SCF HESSIAN
-----------

Occupied/Occupied contributions to the Hessian:
   => Occupied/Occupied contributions              ... done (  0.0 sec)
Perturbed density contributions to the Hessian:
   => Perturbed density contributions              ... done (  0.1 sec)
Explicit contributions to the Hessian:
   => Nuclear repulsion Hessian                    ... done (  0.0 sec)
   => HCore and overlap Hessian                    ... done ( 26.4 sec)
   => RI-J Hessian                                 ... done ( 23.0 sec)
   => COSX Hessian                                 ... 