
     Program PWSCF v.7.1 starts on 22Jan2026 at 20:55:22 

     This program is part of the open-source Quantum ESPRESSO suite
     for quantum simulation of materials; please cite
         "P. Giannozzi et al., J. Phys.:Condens. Matter 21 395502 (2009);
         "P. Giannozzi et al., J. Phys.:Condens. Matter 29 465901 (2017);
         "P. Giannozzi et al., J. Chem. Phys. 152 154105 (2020);
          URL http://www.quantum-espresso.org", 
     in publications or presentations arising from this work. More details at
     http://www.quantum-espresso.org/quote

     Parallel version (MPI), running on   128 processors

     MPI processes distributed on     1 nodes
     247704 MiB available memory on the printing compute node when the environment starts
 
     Waiting for input...
     Reading input from standard input

     Current dimensions of program PWSCF are:
     Max number of different atomic species (ntypx) = 10
     Max number of k-points (npk) =  40000
     Max angular momentum in pseudopotentials (lmaxx) =  4

     IMPORTANT: XC functional enforced from input :
     Exchange-correlation= PBE
                           (   1   4   3   4   0   0   0)
     Any further DFT definition will be discarded
     Please, verify this is what you really want

     Message from routine setup:
     using ibrav=0 with symmetry is DISCOURAGED, use correct ibrav instead
 
     K-points division:     npool     =       8
     R & G space division:  proc/nbgrp/npool/nimage =      16
     Subspace diagonalization in iterative solution of the eigenvalue problem:
     a serial algorithm will be used

 
     Parallelization info
     --------------------
     sticks:   dense  smooth     PW     G-vecs:    dense   smooth      PW
     Min         527     527    146                10575    10575    1551
     Max         528     528    147                10576    10576    1552
     Sum        8435    8435   2339               169209   169209   24819
 
     Using Slab Decomposition
 


     bravais-lattice index     =            0
     lattice parameter (alat)  =      22.7326  a.u.
     unit-cell volume          =    3541.8893 (a.u.)^3
     number of atoms/cell      =           48
     number of atomic types    =            4
     number of electrons       =       168.00
     number of Kohn-Sham states=           84
     kinetic-energy cutoff     =      50.0000  Ry
     charge density cutoff     =     200.0000  Ry
     scf convergence threshold =      1.0E-10
     mixing beta               =       0.7000
     number of iterations used =            8  plain     mixing
     Exchange-correlation= PBE
                           (   1   4   3   4   0   0   0)

     celldm(1)=  22.732596  celldm(2)=   0.000000  celldm(3)=   0.000000
     celldm(4)=   0.000000  celldm(5)=   0.000000  celldm(6)=   0.000000

     crystal axes: (cart. coord. in units of alat)
               a(1) = (   0.999476   0.000000  -0.032376 )  
               a(2) = (   0.000000   1.024260   0.000000 )  
               a(3) = (  -0.165056   0.000000   0.299860 )  

     reciprocal axes: (cart. coord. in units 2 pi/alat)
               b(1) = (  1.018688  0.000000  0.560730 )  
               b(2) = (  0.000000  0.976314  0.000000 )  
               b(3) = (  0.109989  0.000000  3.395430 )  


     PseudoPot. # 1 for C  read from file:
     /home/rr/calc_QE/qe-gipaw-7.1/pseudo/C.pbe-tm-gipaw.UPF
     MD5 check sum: 6e4a9b9bc4429ee737bc22471ffa2923
     Pseudo is Norm-conserving, Zval =  4.0
     Generated by new atomic code, or converted to UPF format
     Using radial grid of 1073 points,  1 beta functions with: 
                l(1) =   0

     PseudoPot. # 2 for H  read from file:
     /home/rr/calc_QE/qe-gipaw-7.1/pseudo/H.pbe-tm-gipaw.UPF
     MD5 check sum: 39a9a69d8410949353303b9fcad9eee2
     Pseudo is Norm-conserving, Zval =  1.0
     Generated by new atomic code, or converted to UPF format
     Using radial grid of  929 points,  0 beta functions with: 

     PseudoPot. # 3 for N  read from file:
     /home/rr/calc_QE/qe-gipaw-7.1/pseudo/N.pbe-tm-gipaw.UPF
     MD5 check sum: df8943e789315a92e2ce8ab49e62f5cb
     Pseudo is Norm-conserving, Zval =  5.0
     Generated by new atomic code, or converted to UPF format
     Using radial grid of 1085 points,  1 beta functions with: 
                l(1) =   0

     PseudoPot. # 4 for O  read from file:
     /home/rr/calc_QE/qe-gipaw-7.1/pseudo/O.pbe-tm-gipaw.UPF
     MD5 check sum: 12b6f10dd62b8d732352127d12073df4
     Pseudo is Norm-conserving, Zval =  6.0
     Generated by new atomic code, or converted to UPF format
     Using radial grid of 1095 points,  1 beta functions with: 
                l(1) =   0

     atomic species   valence    mass     pseudopotential
        C              4.00    12.00000     C ( 1.00)
        H              1.00     1.00783     H ( 1.00)
        N              5.00    14.00307     N ( 1.00)
        O              6.00    15.99491     O ( 1.00)

      4 Sym. Ops., with inversion, found ( 2 have fractional translation)


                                    s                        frac. trans.

      isym =  1     identity                                     

 cryst.   s( 1) = (     1          0          0      )
                  (     0          1          0      )
                  (     0          0          1      )

 cart.    s( 1) = (  1.0000000  0.0000000  0.0000000 )
                  (  0.0000000  1.0000000  0.0000000 )
                  (  0.0000000  0.0000000  1.0000000 )


      isym =  2     180 deg rotation - cart. axis [0,1,0]        

 cryst.   s( 2) = (    -1          0          0      )    f =( -0.5000000 )
                  (     0          1          0      )       (  0.5000000 )
                  (     0          0         -1      )       (  0.0000000 )

 cart.    s( 2) = ( -1.0000000  0.0000000  0.0000000 )    f =( -0.4997379 )
                  (  0.0000000  1.0000000  0.0000000 )       (  0.5121301 )
                  (  0.0000000  0.0000000 -1.0000000 )       (  0.0161882 )


      isym =  3     inversion                                    

 cryst.   s( 3) = (    -1          0          0      )
                  (     0         -1          0      )
                  (     0          0         -1      )

 cart.    s( 3) = ( -1.0000000  0.0000000  0.0000000 )
                  (  0.0000000 -1.0000000  0.0000000 )
                  (  0.0000000  0.0000000 -1.0000000 )


      isym =  4     inv. 180 deg rotation - cart. axis [0,1,0]   

 cryst.   s( 4) = (     1          0          0      )    f =(  0.5000000 )
                  (     0         -1          0      )       ( -0.5000000 )
                  (     0          0          1      )       ( -0.0000000 )

 cart.    s( 4) = (  1.0000000  0.0000000  0.0000000 )    f =(  0.4997379 )
                  (  0.0000000 -1.0000000  0.0000000 )       ( -0.5121301 )
                  (  0.0000000  0.0000000  1.0000000 )       ( -0.0161882 )


   Cartesian axes

     site n.     atom                  positions (alat units)
         1           C   tau(   1) = (   0.1480596   0.2171290  -0.0032542  )
         2           C   tau(   2) = (   0.6863601   0.8071313   0.2707381  )
         3           C   tau(   3) = (   0.1866222   0.7292591   0.2869262  )
         4           C   tau(   4) = (   0.6477975   0.2950012  -0.0194423  )
         5           C   tau(   5) = (   0.1735919   0.0135427   0.0041356  )
         6           C   tau(   6) = (   0.6608278   1.0107176   0.2633483  )
         7           C   tau(   7) = (   0.1610899   0.5256729   0.2795365  )
         8           C   tau(   8) = (   0.6733298   0.4985874  -0.0120526  )
         9           C   tau(   9) = (   0.2912482   0.0308109   0.0088940  )
        10           C   tau(  10) = (   0.5431716   0.9934494   0.2585899  )
        11           C   tau(  11) = (   0.0434337   0.5429410   0.2747781  )
        12           C   tau(  12) = (   0.7909861   0.4813193  -0.0072942  )
        13           C   tau(  13) = (   0.3311952   0.1368447   0.0061930  )
        14           C   tau(  14) = (   0.5032245   0.8874156   0.2612909  )
        15           C   tau(  15) = (   0.0034867   0.6489749   0.2774791  )
        16           C   tau(  16) = (   0.8309331   0.3752854  -0.0099952  )
        17           H   tau(  17) = (   0.4197561   0.1566475   0.0075087  )
        18           H   tau(  18) = (   0.4146636   0.8676128   0.2599752  )
        19           H   tau(  19) = (  -0.0850743   0.6687776   0.2761633  )
        20           H   tau(  20) = (   0.9194940   0.3554827  -0.0086794  )
        21           H   tau(  21) = (   0.2960636   0.3064390  -0.0060357  )
        22           H   tau(  22) = (   0.5383562   0.7178213   0.2735197  )
        23           H   tau(  23) = (   0.0386183   0.8185692   0.2897078  )
        24           H   tau(  24) = (   0.7958014   0.2056911  -0.0222239  )
        25           H   tau(  25) = (  -0.1421105   0.0994565   0.2960107  )
        26           H   tau(  26) = (   0.9765302   0.9248038  -0.0285268  )
        27           H   tau(  27) = (   0.4767923   0.6115866  -0.0123386  )
        28           H   tau(  28) = (   0.3576274   0.4126737   0.2798225  )
        29           H   tau(  29) = (   0.3462088   0.9833349   0.0127035  )
        30           H   tau(  30) = (   0.4882110   0.0409254   0.2547804  )
        31           H   tau(  31) = (  -0.0115269   0.4712048   0.2709686  )
        32           H   tau(  32) = (   0.8459466   0.5530555  -0.0034847  )
        33           N   tau(  33) = (   0.2624079   0.2266706  -0.0001508  )
        34           N   tau(  34) = (   0.5720118   0.7975897   0.2676347  )
        35           N   tau(  35) = (   0.0722740   0.7388007   0.2838229  )
        36           N   tau(  36) = (   0.7621458   0.2854596  -0.0163390  )
        37           N   tau(  37) = (   0.1090662   0.1089201  -0.0002431  )
        38           N   tau(  38) = (   0.7253536   0.9153402   0.2677270  )
        39           N   tau(  39) = (   0.2256157   0.6210502   0.2839152  )
        40           N   tau(  40) = (   0.6088041   0.4032101  -0.0164313  )
        41           O   tau(  41) = (  -0.0799286   0.2982412   0.2912077  )
        42           O   tau(  42) = (   0.9143483   0.7260191  -0.0237238  )
        43           O   tau(  43) = (   0.4146104   0.8103714  -0.0075356  )
        44           O   tau(  44) = (   0.4198093   0.2138889   0.2750195  )
        45           O   tau(  45) = (   0.1259639   0.9441408   0.0031406  )
        46           O   tau(  46) = (   0.7084559   0.0801195   0.2643433  )
        47           O   tau(  47) = (   0.2087180   0.4320106   0.2805315  )
        48           O   tau(  48) = (   0.6257017   0.5922497  -0.0130476  )

   Crystallographic axes

     site n.     atom                  positions (cryst. coord.)
         1           C   tau(   1) = (  0.1490019  0.2119861  0.0052357  )
         2           C   tau(   2) = (  0.8509981  0.7880139  0.9947643  )
         3           C   tau(   3) = (  0.3509981  0.7119861  0.9947643  )
         4           C   tau(   4) = (  0.6490019  0.2880139  0.0052357  )
         5           C   tau(   5) = (  0.1791550  0.0132220  0.0331353  )
         6           C   tau(   6) = (  0.8208450  0.9867780  0.9668647  )
         7           C   tau(   7) = (  0.3208450  0.5132220  0.9668647  )
         8           C   tau(   8) = (  0.6791550  0.4867780  0.0331353  )
         9           C   tau(   9) = (  0.3016783  0.0300811  0.0622331  )
        10           C   tau(  10) = (  0.6983217  0.9699189  0.9377669  )
        11           C   tau(  11) = (  0.1983217  0.5300811  0.9377669  )
        12           C   tau(  12) = (  0.8016783  0.4699189  0.0622331  )
        13           C   tau(  13) = (  0.3408573  0.1336035  0.0574557  )
        14           C   tau(  14) = (  0.6591427  0.8663965  0.9425443  )
        15           C   tau(  15) = (  0.1591427  0.6336035  0.9425443  )
        16           C   tau(  16) = (  0.8408573  0.3663965  0.0574557  )
        17           H   tau(  17) = (  0.4318111  0.1529372  0.0716641  )
        18           H   tau(  18) = (  0.5681889  0.8470628  0.9283359  )
        19           H   tau(  19) = (  0.0681889  0.6529372  0.9283359  )
        20           H   tau(  20) = (  0.9318111  0.3470628  0.0716641  )
        21           H   tau(  21) = (  0.2982121  0.2991808  0.0120699  )
        22           H   tau(  22) = (  0.7017879  0.7008192  0.9879301  )
        23           H   tau(  23) = (  0.2017879  0.7991808  0.9879301  )
        24           H   tau(  24) = (  0.7982121  0.2008192  0.0120699  )
        25           H   tau(  25) = (  0.0212158  0.0971008  0.9894527  )
        26           H   tau(  26) = (  0.9787842  0.9028992  0.0105473  )
        27           H   tau(  27) = (  0.4787842  0.5971008  0.0105473  )
        28           H   tau(  28) = (  0.5212158  0.4028992  0.9894527  )
        29           H   tau(  29) = (  0.3598021  0.9600440  0.0812131  )
        30           H   tau(  30) = (  0.6401979  0.0399560  0.9187869  )
        31           H   tau(  31) = (  0.1401979  0.4600440  0.9187869  )
        32           H   tau(  32) = (  0.8598021  0.5399560  0.0812131  )
        33           N   tau(  33) = (  0.2672273  0.2213017  0.0283500  )
        34           N   tau(  34) = (  0.7327727  0.7786983  0.9716500  )
        35           N   tau(  35) = (  0.2327727  0.7213017  0.9716500  )
        36           N   tau(  36) = (  0.7672273  0.2786983  0.0283500  )
        37           N   tau(  37) = (  0.1109682  0.1063402  0.0111707  )
        38           N   tau(  38) = (  0.8890318  0.8936598  0.9888293  )
        39           N   tau(  39) = (  0.3890318  0.6063402  0.9888293  )
        40           N   tau(  40) = (  0.6109682  0.3936598  0.0111707  )
        41           O   tau(  41) = (  0.0818666  0.2911772  0.9799839  )
        42           O   tau(  42) = (  0.9181334  0.7088228  0.0200161  )
        43           O   tau(  43) = (  0.4181334  0.7911772  0.0200161  )
        44           O   tau(  44) = (  0.5818666  0.2088228  0.9799839  )
        45           O   tau(  45) = (  0.1300790  0.9217782  0.0245183  )
        46           O   tau(  46) = (  0.8699210  0.0782218  0.9754817  )
        47           O   tau(  47) = (  0.3699210  0.4217782  0.9754817  )
        48           O   tau(  48) = (  0.6300790  0.5782218  0.0245183  )

     number of k points=    10
                       cart. coord. in units 2pi/alat
        k(    1) = (   0.0000000   0.0000000   0.0000000), wk =   0.0740741
        k(    2) = (   0.0366631   0.0000000   1.1318099), wk =   0.1481481
        k(    3) = (   0.0000000   0.3254381   0.0000000), wk =   0.1481481
        k(    4) = (   0.0366631   0.3254381   1.1318099), wk =   0.2962963
        k(    5) = (   0.3395628   0.0000000   0.1869100), wk =   0.1481481
        k(    6) = (   0.3762259   0.0000000   1.3187199), wk =   0.1481481
        k(    7) = (   0.3028997   0.0000000  -0.9448999), wk =   0.1481481
        k(    8) = (   0.3395628   0.3254381   0.1869100), wk =   0.2962963
        k(    9) = (   0.3762259   0.3254381   1.3187199), wk =   0.2962963
        k(   10) = (   0.3028997   0.3254381  -0.9448999), wk =   0.2962963

                       cryst. coord.
        k(    1) = (   0.0000000   0.0000000   0.0000000), wk =   0.0740741
        k(    2) = (   0.0000000   0.0000000   0.3333333), wk =   0.1481481
        k(    3) = (   0.0000000   0.3333333   0.0000000), wk =   0.1481481
        k(    4) = (   0.0000000   0.3333333   0.3333333), wk =   0.2962963
        k(    5) = (   0.3333333   0.0000000  -0.0000000), wk =   0.1481481
        k(    6) = (   0.3333333   0.0000000   0.3333333), wk =   0.1481481
        k(    7) = (   0.3333333   0.0000000  -0.3333333), wk =   0.1481481
        k(    8) = (   0.3333333   0.3333333  -0.0000000), wk =   0.2962963
        k(    9) = (   0.3333333   0.3333333   0.3333333), wk =   0.2962963
        k(   10) = (   0.3333333   0.3333333  -0.3333333), wk =   0.2962963

     Dense  grid:   169209 G-vectors     FFT dimensions: ( 108, 108,  36)

     Dynamical RAM for                 wfc:       1.69 MB

     Dynamical RAM for     wfc (w. buffer):       5.08 MB

     Dynamical RAM for           str. fact:       0.65 MB

     Dynamical RAM for           local pot:       0.00 MB

     Dynamical RAM for          nlocal pot:       0.65 MB

     Dynamical RAM for                qrad:       0.04 MB

     Dynamical RAM for          rho,v,vnew:       1.29 MB

     Dynamical RAM for               rhoin:       0.43 MB

     Dynamical RAM for            rho*nmix:       2.58 MB

     Dynamical RAM for           G-vectors:       0.69 MB

     Dynamical RAM for          h,s,v(r/c):       1.29 MB

     Dynamical RAM for          <psi|beta>:       0.04 MB

     Dynamical RAM for                 psi:       3.39 MB

     Dynamical RAM for                hpsi:       3.39 MB

     Dynamical RAM for      wfcinit/wfcrot:       6.28 MB

     Estimated static dynamical RAM per process >      10.95 MB

     Estimated max dynamical RAM per process >      21.64 MB

     Estimated total dynamical RAM >       2.42 GB

     Initial potential from superposition of free atoms

     starting charge     145.5993, renormalised to     168.0000
     Starting wfcs are  144 randomized atomic wfcs

     total cpu time spent up to now is        1.2 secs

     Self-consistent Calculation

     iteration #  1     ecut=    50.00 Ry     beta= 0.70
     Davidson diagonalization with overlap

---- Real-time Memory Report at c_bands before calling an iterative solver
            89 MiB given to the printing process from OS
             0 MiB allocation reported by mallinfo(arena+hblkhd)
        244214 MiB available memory on the node where the printing process lives
------------------
     ethr =  1.00E-04,  avg # of iterations = 10.5

     total cpu time spent up to now is        3.6 secs

     total energy              =    -591.34878721 Ry
     estimated scf accuracy    <      47.40541517 Ry

     iteration #  2     ecut=    50.00 Ry     beta= 0.70
     Davidson diagonalization with overlap

---- Real-time Memory Report at c_bands before calling an iterative solver
            98 MiB given to the printing process from OS
             0 MiB allocation reported by mallinfo(arena+hblkhd)
        243213 MiB available memory on the node where the printing process lives
------------------
     ethr =  1.00E-02,  avg # of iterations =  7.1

     total cpu time spent up to now is        5.6 secs

     total energy              =    -595.71983060 Ry
     estimated scf accuracy    <      90.85890462 Ry

     iteration #  3     ecut=    50.00 Ry     beta= 0.70
     Davidson diagonalization with overlap

---- Real-time Memory Report at c_bands before calling an iterative solver
           104 MiB given to the printing process from OS
             0 MiB allocation reported by mallinfo(arena+hblkhd)
        242943 MiB available memory on the node where the printing process lives
------------------
     ethr =  1.00E-02,  avg # of iterations =  6.0

     total cpu time spent up to now is        7.3 secs

     total energy              =    -614.99373881 Ry
     estimated scf accuracy    <       5.65024226 Ry

     iteration #  4     ecut=    50.00 Ry     beta= 0.70
     Davidson diagonalization with overlap

---- Real-time Memory Report at c_bands before calling an iterative solver
           107 MiB given to the printing process from OS
             0 MiB allocation reported by mallinfo(arena+hblkhd)
        242792 MiB available memory on the node where the printing process lives
------------------
     ethr =  3.36E-03,  avg # of iterations =  2.0

     total cpu time spent up to now is        8.3 secs

     total energy              =    -615.36752709 Ry
     estimated scf accuracy    <       0.74914140 Ry

     iteration #  5     ecut=    50.00 Ry     beta= 0.70
     Davidson diagonalization with overlap

---- Real-time Memory Report at c_bands before calling an iterative solver
           110 MiB given to the printing process from OS
             0 MiB allocation reported by mallinfo(arena+hblkhd)
        242655 MiB available memory on the node where the printing process lives
------------------
     ethr =  4.46E-04,  avg # of iterations =  5.0

     total cpu time spent up to now is        9.5 secs

     total energy              =    -615.59323269 Ry
     estimated scf accuracy    <       0.08296324 Ry

     iteration #  6     ecut=    50.00 Ry     beta= 0.70
     Davidson diagonalization with overlap

---- Real-time Memory Report at c_bands before calling an iterative solver
           112 MiB given to the printing process from OS
             0 MiB allocation reported by mallinfo(arena+hblkhd)
        242512 MiB available memory on the node where the printing process lives
------------------
     ethr =  4.94E-05,  avg # of iterations =  5.0

     total cpu time spent up to now is       10.9 secs

     total energy              =    -615.61206065 Ry
     estimated scf accuracy    <       0.02323726 Ry

     iteration #  7     ecut=    50.00 Ry     beta= 0.70
     Davidson diagonalization with overlap

---- Real-time Memory Report at c_bands before calling an iterative solver
           113 MiB given to the printing process from OS
             0 MiB allocation reported by mallinfo(arena+hblkhd)
        242373 MiB available memory on the node where the printing process lives
------------------
     ethr =  1.38E-05,  avg # of iterations =  5.0

     total cpu time spent up to now is       12.0 secs

     total energy              =    -615.61585578 Ry
     estimated scf accuracy    <       0.00157231 Ry

     iteration #  8     ecut=    50.00 Ry     beta= 0.70
     Davidson diagonalization with overlap

---- Real-time Memory Report at c_bands before calling an iterative solver
           115 MiB given to the printing process from OS
             0 MiB allocation reported by mallinfo(arena+hblkhd)
        242250 MiB available memory on the node where the printing process lives
------------------
     ethr =  9.36E-07,  avg # of iterations =  5.0

     total cpu time spent up to now is       13.3 secs

     total energy              =    -615.61632586 Ry
     estimated scf accuracy    <       0.00066288 Ry

     iteration #  9     ecut=    50.00 Ry     beta= 0.70
     Davidson diagonalization with overlap

---- Real-time Memory Report at c_bands before calling an iterative solver
           118 MiB given to the printing process from OS
             0 MiB allocation reported by mallinfo(arena+hblkhd)
        242083 MiB available memory on the node where the printing process lives
------------------
     ethr =  3.95E-07,  avg # of iterations =  4.6

     total cpu time spent up to now is       14.5 secs

     total energy              =    -615.61642400 Ry
     estimated scf accuracy    <       0.00003379 Ry

     iteration # 10     ecut=    50.00 Ry     beta= 0.70
     Davidson diagonalization with overlap

---- Real-time Memory Report at c_bands before calling an iterative solver
           120 MiB given to the printing process from OS
             0 MiB allocation reported by mallinfo(arena+hblkhd)
        241943 MiB available memory on the node where the printing process lives
------------------
     ethr =  2.01E-08,  avg # of iterations =  5.0

     total cpu time spent up to now is       15.9 secs

     total energy              =    -615.61643638 Ry
     estimated scf accuracy    <       0.00000760 Ry

     iteration # 11     ecut=    50.00 Ry     beta= 0.70
     Davidson diagonalization with overlap

---- Real-time Memory Report at c_bands before calling an iterative solver
           122 MiB given to the printing process from OS
             0 MiB allocation reported by mallinfo(arena+hblkhd)
        241771 MiB available memory on the node where the printing process lives
------------------
     ethr =  4.52E-09,  avg # of iterations =  4.0

     total cpu time spent up to now is       17.0 secs

     total energy              =    -615.61643732 Ry
     estimated scf accuracy    <       0.00000104 Ry

     iteration # 12     ecut=    50.00 Ry     beta= 0.70
     Davidson diagonalization with overlap

---- Real-time Memory Report at c_bands before calling an iterative solver
           124 MiB given to the printing process from OS
             0 MiB allocation reported by mallinfo(arena+hblkhd)
        241660 MiB available memory on the node where the printing process lives
------------------
     ethr =  6.20E-10,  avg # of iterations =  4.6

     total cpu time spent up to now is       18.4 secs

     total energy              =    -615.61643766 Ry
     estimated scf accuracy    <       0.00000014 Ry

     iteration # 13     ecut=    50.00 Ry     beta= 0.70
     Davidson diagonalization with overlap

---- Real-time Memory Report at c_bands before calling an iterative solver
           126 MiB given to the printing process from OS
             0 MiB allocation reported by mallinfo(arena+hblkhd)
        241540 MiB available memory on the node where the printing process lives
------------------
     ethr =  8.14E-11,  avg # of iterations =  3.8

     total cpu time spent up to now is       19.6 secs

     total energy              =    -615.61643766 Ry
     estimated scf accuracy    <       0.00000006 Ry

     iteration # 14     ecut=    50.00 Ry     beta= 0.70
     Davidson diagonalization with overlap

---- Real-time Memory Report at c_bands before calling an iterative solver
           126 MiB given to the printing process from OS
             0 MiB allocation reported by mallinfo(arena+hblkhd)
        241438 MiB available memory on the node where the printing process lives
------------------
     ethr =  3.35E-11,  avg # of iterations =  4.1

     total cpu time spent up to now is       20.8 secs

     total energy              =    -615.61643768 Ry
     estimated scf accuracy    <          2.3E-09 Ry

     iteration # 15     ecut=    50.00 Ry     beta= 0.70
     Davidson diagonalization with overlap

---- Real-time Memory Report at c_bands before calling an iterative solver
           126 MiB given to the printing process from OS
             0 MiB allocation reported by mallinfo(arena+hblkhd)
        241370 MiB available memory on the node where the printing process lives
------------------
     ethr =  1.37E-12,  avg # of iterations =  5.0

     total cpu time spent up to now is       22.2 secs

     total energy              =    -615.61643768 Ry
     estimated scf accuracy    <          4.5E-10 Ry

     iteration # 16     ecut=    50.00 Ry     beta= 0.70
     Davidson diagonalization with overlap

---- Real-time Memory Report at c_bands before calling an iterative solver
           126 MiB given to the printing process from OS
             0 MiB allocation reported by mallinfo(arena+hblkhd)
        241299 MiB available memory on the node where the printing process lives
------------------
     ethr =  2.66E-13,  avg # of iterations =  4.8

     total cpu time spent up to now is       23.5 secs

     End of self-consistent calculation

          k = 0.0000 0.0000 0.0000 ( 21165 PWs)   bands (ev):

   -20.5220 -20.4545 -20.4383 -20.4063 -19.7622 -19.7008 -19.6911 -19.6388
   -17.9358 -17.9090 -17.8710 -17.8115 -16.7443 -16.6324 -16.6127 -16.4871
   -13.1969 -13.1069 -13.0950 -13.0841 -10.7333 -10.5998 -10.5692 -10.4391
   -10.2728 -10.1805  -9.8785  -9.8662  -8.1891  -8.1494  -8.1291  -8.0458
    -7.4861  -7.4474  -7.2929  -7.2394  -6.6236  -6.4554  -6.1722  -6.0758
    -5.6449  -5.4834  -5.2716  -5.2259  -5.2014  -5.1925  -4.9250  -4.9160
    -4.8814  -4.6262  -4.5358  -4.5156  -4.2371  -4.0998  -3.6757  -3.5734
    -3.5721  -3.5603  -3.5333  -3.5184  -3.5124  -3.4680  -3.3974  -3.1920
    -2.5425  -2.5355  -2.4174  -2.4001  -1.0529  -0.8135  -0.6772  -0.6553
    -0.6484  -0.6468  -0.5744  -0.4884  -0.2381  -0.1976  -0.0808  -0.0649
     0.3026   0.3588   0.4089   0.4407

     occupation numbers 
     1.0000   1.0000   1.0000   1.0000   1.0000   1.0000   1.0000   1.0000
     1.0000   1.0000   1.0000   1.0000   1.0000   1.0000   1.0000   1.0000
     1.0000   1.0000   1.0000   1.0000   1.0000   1.0000   1.0000   1.0000
     1.0000   1.0000   1.0000   1.0000   1.0000   1.0000   1.0000   1.0000
     1.0000   1.0000   1.0000   1.0000   1.0000   1.0000   1.0000   1.0000
     1.0000   1.0000   1.0000   1.0000   1.0000   1.0000   1.0000   1.0000
     1.0000   1.0000   1.0000   1.0000   1.0000   1.0000   1.0000   1.0000
     1.0000   1.0000   1.0000   1.0000   1.0000   1.0000   1.0000   1.0000
     1.0000   1.0000   1.0000   1.0000   1.0000   1.0000   1.0000   1.0000
     1.0000   1.0000   1.0000   1.0000   1.0000   1.0000   1.0000   1.0000
     1.0000   1.0000   1.0000   1.0000

          k = 0.0367 0.0000 1.1318 ( 21148 PWs)   bands (ev):

   -20.4893 -20.4354 -20.4218 -20.3841 -19.7446 -19.6917 -19.6771 -19.6341
   -17.9140 -17.9068 -17.8482 -17.8116 -16.7354 -16.6333 -16.6075 -16.4912
   -13.1569 -13.0879 -13.0783 -13.0658 -10.7434 -10.6266 -10.5699 -10.4583
   -10.2510 -10.1811  -9.8769  -9.8667  -8.2047  -8.1262  -8.1200  -8.0240
    -7.4945  -7.4591  -7.3110  -7.2543  -6.6090  -6.4415  -6.1865  -6.0767
    -5.6881  -5.6243  -5.6020  -5.5619  -5.5257  -5.4650  -4.9271  -4.8818
    -4.8700  -4.6666  -4.5493  -4.5052  -4.2518  -4.0874  -3.8666  -3.8513
    -3.7013  -3.6724  -3.6718  -3.5711  -3.5456  -3.5323  -3.3940  -3.2158
    -2.5560  -2.4974  -2.3981  -2.3875  -1.0592  -0.9565  -0.8939  -0.8114
    -0.6840  -0.6504  -0.5420  -0.4983  -0.2241  -0.1890  -0.1010  -0.0762
     0.1606   0.2712   0.3661   0.3679

     occupation numbers 
     1.0000   1.0000   1.0000   1.0000   1.0000   1.0000   1.0000   1.0000
     1.0000   1.0000   1.0000   1.0000   1.0000   1.0000   1.0000   1.0000
     1.0000   1.0000   1.0000   1.0000   1.0000   1.0000   1.0000   1.0000
     1.0000   1.0000   1.0000   1.0000   1.0000   1.0000   1.0000   1.0000
     1.0000   1.0000   1.0000   1.0000   1.0000   1.0000   1.0000   1.0000
     1.0000   1.0000   1.0000   1.0000   1.0000   1.0000   1.0000   1.0000
     1.0000   1.0000   1.0000   1.0000   1.0000   1.0000   1.0000   1.0000
     1.0000   1.0000   1.0000   1.0000   1.0000   1.0000   1.0000   1.0000
     1.0000   1.0000   1.0000   1.0000   1.0000   1.0000   1.0000   1.0000
     1.0000   1.0000   1.0000   1.0000   1.0000   1.0000   1.0000   1.0000
     1.0000   1.0000   1.0000   1.0000

          k = 0.0000 0.3254 0.0000 ( 21154 PWs)   bands (ev):

   -20.5072 -20.4740 -20.4296 -20.4131 -19.7439 -19.7085 -19.6841 -19.6531
   -17.9209 -17.8886 -17.8863 -17.8378 -16.7099 -16.6443 -16.5946 -16.5222
   -13.1774 -13.1347 -13.0890 -13.0812 -10.7107 -10.6552 -10.5060 -10.4539
   -10.1909 -10.1192 -10.0018  -9.9573  -8.1595  -8.1361  -8.0897  -8.0390
    -7.4755  -7.4516  -7.2685  -7.2460  -6.5812  -6.4988  -6.1494  -6.1026
    -5.6538  -5.3530  -5.2678  -5.2555  -5.2370  -5.2002  -5.1822  -4.9404
    -4.9055  -4.7614  -4.5402  -4.4045  -4.1072  -3.8305  -3.7883  -3.6412
    -3.5701  -3.5332  -3.5299  -3.5181  -3.4858  -3.4803  -3.3785  -3.2215
    -2.5403  -2.5371  -2.4121  -2.4036  -0.9968  -0.8878  -0.6753  -0.6634
    -0.6552  -0.6483  -0.5135  -0.4127  -0.3028  -0.1644  -0.1570  -0.1034
     0.3319   0.3785   0.3852   0.4200

     occupation numbers 
     1.0000   1.0000   1.0000   1.0000   1.0000   1.0000   1.0000   1.0000
     1.0000   1.0000   1.0000   1.0000   1.0000   1.0000   1.0000   1.0000
     1.0000   1.0000   1.0000   1.0000   1.0000   1.0000   1.0000   1.0000
     1.0000   1.0000   1.0000   1.0000   1.0000   1.0000   1.0000   1.0000
     1.0000   1.0000   1.0000   1.0000   1.0000   1.0000   1.0000   1.0000
     1.0000   1.0000   1.0000   1.0000   1.0000   1.0000   1.0000   1.0000
     1.0000   1.0000   1.0000   1.0000   1.0000   1.0000   1.0000   1.0000
     1.0000   1.0000   1.0000   1.0000   1.0000   1.0000   1.0000   1.0000
     1.0000   1.0000   1.0000   1.0000   1.0000   1.0000   1.0000   1.0000
     1.0000   1.0000   1.0000   1.0000   1.0000   1.0000   1.0000   1.0000
     1.0000   1.0000   1.0000   1.0000

          k = 0.0367 0.3254 1.1318 ( 21145 PWs)   bands (ev):

   -20.4767 -20.4496 -20.4132 -20.3939 -19.7276 -19.6949 -19.6748 -19.6472
   -17.9002 -17.8833 -17.8667 -17.8365 -16.7024 -16.6393 -16.5953 -16.5251
   -13.1401 -13.1044 -13.0774 -13.0664 -10.7216 -10.6696 -10.5195 -10.4717
   -10.1719 -10.1217  -9.9903  -9.9616  -8.1705  -8.1374  -8.0650  -8.0181
    -7.4852  -7.4637  -7.2851  -7.2598  -6.5666  -6.4837  -6.1612  -6.1064
    -5.6727  -5.6338  -5.6176  -5.5590  -5.5386  -5.3191  -5.2437  -4.9502
    -4.8817  -4.7424  -4.5767  -4.4191  -4.1146  -3.8890  -3.8496  -3.7960
    -3.7624  -3.7122  -3.6880  -3.6185  -3.5377  -3.4840  -3.4135  -3.2474
    -2.5410  -2.5113  -2.3959  -2.3902  -1.0058  -0.9425  -0.8991  -0.8796
    -0.6756  -0.6596  -0.4922  -0.4158  -0.2998  -0.1828  -0.1535  -0.1079
     0.2067   0.2969   0.3083   0.3565

     occupation numbers 
     1.0000   1.0000   1.0000   1.0000   1.0000   1.0000   1.0000   1.0000
     1.0000   1.0000   1.0000   1.0000   1.0000   1.0000   1.0000   1.0000
     1.0000   1.0000   1.0000   1.0000   1.0000   1.0000   1.0000   1.0000
     1.0000   1.0000   1.0000   1.0000   1.0000   1.0000   1.0000   1.0000
     1.0000   1.0000   1.0000   1.0000   1.0000   1.0000   1.0000   1.0000
     1.0000   1.0000   1.0000   1.0000   1.0000   1.0000   1.0000   1.0000
     1.0000   1.0000   1.0000   1.0000   1.0000   1.0000   1.0000   1.0000
     1.0000   1.0000   1.0000   1.0000   1.0000   1.0000   1.0000   1.0000
     1.0000   1.0000   1.0000   1.0000   1.0000   1.0000   1.0000   1.0000
     1.0000   1.0000   1.0000   1.0000   1.0000   1.0000   1.0000   1.0000
     1.0000   1.0000   1.0000   1.0000

          k = 0.3396 0.0000 0.1869 ( 21153 PWs)   bands (ev):

   -20.5103 -20.4814 -20.4202 -20.4090 -19.7530 -19.7288 -19.6654 -19.6456
   -17.9294 -17.9160 -17.8559 -17.8261 -16.7291 -16.6861 -16.5555 -16.5057
   -13.1743 -13.1280 -13.0941 -13.0872 -10.7075 -10.6415 -10.5312 -10.4651
   -10.2523 -10.2054  -9.8710  -9.8649  -8.1959  -8.1871  -8.0705  -8.0395
    -7.4818  -7.4664  -7.2838  -7.2653  -6.5654  -6.3557  -6.3502  -6.1525
    -5.4851  -5.3913  -5.2569  -5.2237  -5.2168  -5.1978  -5.0760  -4.9600
    -4.8290  -4.7776  -4.4551  -4.3017  -4.2283  -4.1304  -3.8605  -3.8306
    -3.5621  -3.5592  -3.5085  -3.4828  -3.4045  -3.3836  -3.3124  -3.2085
    -2.5157  -2.4948  -2.4527  -2.4284  -0.9929  -0.8645  -0.6726  -0.6643
    -0.6490  -0.6484  -0.5570  -0.4889  -0.2628  -0.2599  -0.0439  -0.0421
     0.3109   0.3345   0.4280   0.4389

     occupation numbers 
     1.0000   1.0000   1.0000   1.0000   1.0000   1.0000   1.0000   1.0000
     1.0000   1.0000   1.0000   1.0000   1.0000   1.0000   1.0000   1.0000
     1.0000   1.0000   1.0000   1.0000   1.0000   1.0000   1.0000   1.0000
     1.0000   1.0000   1.0000   1.0000   1.0000   1.0000   1.0000   1.0000
     1.0000   1.0000   1.0000   1.0000   1.0000   1.0000   1.0000   1.0000
     1.0000   1.0000   1.0000   1.0000   1.0000   1.0000   1.0000   1.0000
     1.0000   1.0000   1.0000   1.0000   1.0000   1.0000   1.0000   1.0000
     1.0000   1.0000   1.0000   1.0000   1.0000   1.0000   1.0000   1.0000
     1.0000   1.0000   1.0000   1.0000   1.0000   1.0000   1.0000   1.0000
     1.0000   1.0000   1.0000   1.0000   1.0000   1.0000   1.0000   1.0000
     1.0000   1.0000   1.0000   1.0000

          k = 0.3762 0.0000 1.3187 ( 21123 PWs)   bands (ev):

   -20.4764 -20.4632 -20.4028 -20.3879 -19.7343 -19.7173 -19.6537 -19.6419
   -17.9137 -17.9076 -17.8329 -17.8262 -16.7191 -16.6846 -16.5525 -16.5111
   -13.1360 -13.1197 -13.0667 -13.0663 -10.7152 -10.6636 -10.5338 -10.4895
   -10.2283 -10.2084  -9.8711  -9.8648  -8.2068  -8.1606  -8.0685  -8.0261
    -7.4915  -7.4773  -7.3000  -7.2703  -6.5469  -6.3592  -6.3393  -6.1564
    -5.7155  -5.5798  -5.5667  -5.5507  -5.4268  -5.3736  -5.0617  -4.9444
    -4.8459  -4.7974  -4.4430  -4.3045  -4.2506  -4.1266  -3.9439  -3.8401
    -3.8352  -3.7937  -3.7332  -3.5972  -3.4196  -3.4057  -3.3159  -3.2349
    -2.6141  -2.5438  -2.3479  -2.3376  -1.0046  -0.9808  -0.8625  -0.8432
    -0.7241  -0.6325  -0.5209  -0.5059  -0.2634  -0.2450  -0.0539  -0.0524
     0.1396   0.2977   0.3586   0.3709

     occupation numbers 
     1.0000   1.0000   1.0000   1.0000   1.0000   1.0000   1.0000   1.0000
     1.0000   1.0000   1.0000   1.0000   1.0000   1.0000   1.0000   1.0000
     1.0000   1.0000   1.0000   1.0000   1.0000   1.0000   1.0000   1.0000
     1.0000   1.0000   1.0000   1.0000   1.0000   1.0000   1.0000   1.0000
     1.0000   1.0000   1.0000   1.0000   1.0000   1.0000   1.0000   1.0000
     1.0000   1.0000   1.0000   1.0000   1.0000   1.0000   1.0000   1.0000
     1.0000   1.0000   1.0000   1.0000   1.0000   1.0000   1.0000   1.0000
     1.0000   1.0000   1.0000   1.0000   1.0000   1.0000   1.0000   1.0000
     1.0000   1.0000   1.0000   1.0000   1.0000   1.0000   1.0000   1.0000
     1.0000   1.0000   1.0000   1.0000   1.0000   1.0000   1.0000   1.0000
     1.0000   1.0000   1.0000   1.0000

          k = 0.3029 0.0000-0.9449 ( 21136 PWs)   bands (ev):

   -20.4845 -20.4524 -20.4040 -20.3896 -19.7379 -19.7106 -19.6607 -19.6380
   -17.9174 -17.9040 -17.8445 -17.8146 -16.7232 -16.6771 -16.5602 -16.5068
   -13.1533 -13.1113 -13.0629 -13.0608 -10.7184 -10.6539 -10.5485 -10.4805
   -10.2436 -10.1934  -9.8709  -9.8671  -8.1835  -8.1762  -8.0709  -8.0416
    -7.4937  -7.4746  -7.2903  -7.2682  -6.5546  -6.3421  -6.3416  -6.1481
    -5.6837  -5.6195  -5.5551  -5.5502  -5.4803  -5.3691  -5.0462  -4.9450
    -4.8309  -4.7790  -4.4853  -4.3179  -4.2328  -4.1486  -3.8953  -3.8650
    -3.8150  -3.8119  -3.6923  -3.6281  -3.4295  -3.4107  -3.3211  -3.2225
    -2.5384  -2.4838  -2.4203  -2.3984  -1.0030  -0.9466  -0.9212  -0.8345
    -0.6971  -0.6416  -0.5546  -0.4773  -0.2536  -0.2525  -0.0554  -0.0538
     0.1888   0.2355   0.3653   0.3744

     occupation numbers 
     1.0000   1.0000   1.0000   1.0000   1.0000   1.0000   1.0000   1.0000
     1.0000   1.0000   1.0000   1.0000   1.0000   1.0000   1.0000   1.0000
     1.0000   1.0000   1.0000   1.0000   1.0000   1.0000   1.0000   1.0000
     1.0000   1.0000   1.0000   1.0000   1.0000   1.0000   1.0000   1.0000
     1.0000   1.0000   1.0000   1.0000   1.0000   1.0000   1.0000   1.0000
     1.0000   1.0000   1.0000   1.0000   1.0000   1.0000   1.0000   1.0000
     1.0000   1.0000   1.0000   1.0000   1.0000   1.0000   1.0000   1.0000
     1.0000   1.0000   1.0000   1.0000   1.0000   1.0000   1.0000   1.0000
     1.0000   1.0000   1.0000   1.0000   1.0000   1.0000   1.0000   1.0000
     1.0000   1.0000   1.0000   1.0000   1.0000   1.0000   1.0000   1.0000
     1.0000   1.0000   1.0000   1.0000

          k = 0.3396 0.3254 0.1869 ( 21137 PWs)   bands (ev):

   -20.4996 -20.4832 -20.4247 -20.4166 -19.7373 -19.7212 -19.6722 -19.6584
   -17.9130 -17.8969 -17.8740 -17.8498 -16.6995 -16.6709 -16.5663 -16.5342
   -13.1585 -13.1303 -13.1026 -13.0915 -10.6916 -10.6592 -10.5059 -10.4741
   -10.1744 -10.1382  -9.9872  -9.9650  -8.1679  -8.1615  -8.0485  -8.0284
    -7.4703  -7.4598  -7.2736  -7.2652  -6.5144  -6.4159  -6.2986  -6.1988
    -5.5116  -5.3675  -5.2522  -5.2373  -5.2167  -5.2069  -5.1846  -5.0554
    -4.8684  -4.7148  -4.5003  -4.3218  -4.1401  -3.9955  -3.8802  -3.7814
    -3.5517  -3.5415  -3.5188  -3.5001  -3.4126  -3.3525  -3.3282  -3.2324
    -2.5101  -2.4998  -2.4451  -2.4330  -0.9375  -0.8626  -0.6710  -0.6650
    -0.6528  -0.6500  -0.5738  -0.4951  -0.2819  -0.2328  -0.0826  -0.0771
     0.3348   0.3499   0.4121   0.4214

     occupation numbers 
     1.0000   1.0000   1.0000   1.0000   1.0000   1.0000   1.0000   1.0000
     1.0000   1.0000   1.0000   1.0000   1.0000   1.0000   1.0000   1.0000
     1.0000   1.0000   1.0000   1.0000   1.0000   1.0000   1.0000   1.0000
     1.0000   1.0000   1.0000   1.0000   1.0000   1.0000   1.0000   1.0000
     1.0000   1.0000   1.0000   1.0000   1.0000   1.0000   1.0000   1.0000
     1.0000   1.0000   1.0000   1.0000   1.0000   1.0000   1.0000   1.0000
     1.0000   1.0000   1.0000   1.0000   1.0000   1.0000   1.0000   1.0000
     1.0000   1.0000   1.0000   1.0000   1.0000   1.0000   1.0000   1.0000
     1.0000   1.0000   1.0000   1.0000   1.0000   1.0000   1.0000   1.0000
     1.0000   1.0000   1.0000   1.0000   1.0000   1.0000   1.0000   1.0000
     1.0000   1.0000   1.0000   1.0000

          k = 0.3762 0.3254 1.3187 ( 21152 PWs)   bands (ev):

   -20.4688 -20.4609 -20.4064 -20.3977 -19.7203 -19.7091 -19.6618 -19.6532
   -17.8957 -17.8896 -17.8540 -17.8475 -16.6910 -16.6673 -16.5655 -16.5384
   -13.1248 -13.1147 -13.0763 -13.0726 -10.7013 -10.6753 -10.5162 -10.4946
   -10.1541 -10.1427  -9.9768  -9.9696  -8.1710  -8.1462  -8.0453  -8.0202
    -7.4802  -7.4711  -7.2862  -7.2718  -6.5003  -6.4071  -6.2945  -6.1996
    -5.6935  -5.6333  -5.5561  -5.5357  -5.4520  -5.3370  -5.2040  -5.0757
    -4.8453  -4.7216  -4.5131  -4.3526  -4.1404  -4.0003  -3.9247  -3.8356
    -3.7964  -3.7466  -3.7422  -3.6515  -3.4267  -3.3784  -3.3394  -3.2575
    -2.5970  -2.5614  -2.3453  -2.3402  -0.9613  -0.9485  -0.8706  -0.8593
    -0.6984  -0.6537  -0.5541  -0.4959  -0.2819  -0.2340  -0.0910  -0.0813
     0.1886   0.2908   0.3241   0.3668

     occupation numbers 
     1.0000   1.0000   1.0000   1.0000   1.0000   1.0000   1.0000   1.0000
     1.0000   1.0000   1.0000   1.0000   1.0000   1.0000   1.0000   1.0000
     1.0000   1.0000   1.0000   1.0000   1.0000   1.0000   1.0000   1.0000
     1.0000   1.0000   1.0000   1.0000   1.0000   1.0000   1.0000   1.0000
     1.0000   1.0000   1.0000   1.0000   1.0000   1.0000   1.0000   1.0000
     1.0000   1.0000   1.0000   1.0000   1.0000   1.0000   1.0000   1.0000
     1.0000   1.0000   1.0000   1.0000   1.0000   1.0000   1.0000   1.0000
     1.0000   1.0000   1.0000   1.0000   1.0000   1.0000   1.0000   1.0000
     1.0000   1.0000   1.0000   1.0000   1.0000   1.0000   1.0000   1.0000
     1.0000   1.0000   1.0000   1.0000   1.0000   1.0000   1.0000   1.0000
     1.0000   1.0000   1.0000   1.0000

          k = 0.3029 0.3254-0.9449 ( 21149 PWs)   bands (ev):

   -20.4738 -20.4556 -20.4070 -20.3972 -19.7232 -19.7049 -19.6662 -19.6503
   -17.9010 -17.8845 -17.8630 -17.8383 -16.6936 -16.6623 -16.5706 -16.5356
   -13.1394 -13.1160 -13.0695 -13.0630 -10.7033 -10.6717 -10.5224 -10.4898
   -10.1678 -10.1288  -9.9855  -9.9627  -8.1530  -8.1459  -8.0579  -8.0367
    -7.4808  -7.4692  -7.2782  -7.2681  -6.5059  -6.4109  -6.2804  -6.1881
    -5.6669  -5.6339  -5.5685  -5.5455  -5.4824  -5.3287  -5.2225  -5.0517
    -4.8689  -4.7182  -4.5238  -4.3373  -4.1364  -3.9801  -3.8936  -3.8493
    -3.8231  -3.7656  -3.7192  -3.6697  -3.4337  -3.3762  -3.3405  -3.2486
    -2.5246  -2.4977  -2.4134  -2.4026  -0.9590  -0.9196  -0.9159  -0.8482
    -0.6861  -0.6612  -0.5629  -0.4892  -0.2815  -0.2301  -0.0905  -0.0846
     0.2323   0.2716   0.3213   0.3443

     occupation numbers 
     1.0000   1.0000   1.0000   1.0000   1.0000   1.0000   1.0000   1.0000
     1.0000   1.0000   1.0000   1.0000   1.0000   1.0000   1.0000   1.0000
     1.0000   1.0000   1.0000   1.0000   1.0000   1.0000   1.0000   1.0000
     1.0000   1.0000   1.0000   1.0000   1.0000   1.0000   1.0000   1.0000
     1.0000   1.0000   1.0000   1.0000   1.0000   1.0000   1.0000   1.0000
     1.0000   1.0000   1.0000   1.0000   1.0000   1.0000   1.0000   1.0000
     1.0000   1.0000   1.0000   1.0000   1.0000   1.0000   1.0000   1.0000
     1.0000   1.0000   1.0000   1.0000   1.0000   1.0000   1.0000   1.0000
     1.0000   1.0000   1.0000   1.0000   1.0000   1.0000   1.0000   1.0000
     1.0000   1.0000   1.0000   1.0000   1.0000   1.0000   1.0000   1.0000
     1.0000   1.0000   1.0000   1.0000

     highest occupied level (ev):     0.4407

!    total energy              =    -615.61643768 Ry
     estimated scf accuracy    <          3.2E-11 Ry

     The total energy is the sum of the following terms:
     one-electron contribution =    -518.66517409 Ry
     hartree contribution      =     318.87032131 Ry
     xc contribution           =    -164.19555100 Ry
     ewald contribution        =    -251.62603390 Ry

     convergence has been achieved in  16 iterations

     Forces acting on atoms (cartesian axes, Ry/au):

     atom    1 type  1   force =     0.02127533   -0.02783148    0.00118838
     atom    2 type  1   force =    -0.02127533    0.02783148   -0.00118838
     atom    3 type  1   force =    -0.02127533   -0.02783148   -0.00118838
     atom    4 type  1   force =     0.02127533    0.02783148    0.00118838
     atom    5 type  1   force =     0.02584213    0.02844613    0.00073017
     atom    6 type  1   force =    -0.02584213   -0.02844613   -0.00073017
     atom    7 type  1   force =    -0.02584213    0.02844613   -0.00073017
     atom    8 type  1   force =     0.02584213   -0.02844613    0.00073017
     atom    9 type  1   force =     0.00709506   -0.00795318    0.00088034
     atom   10 type  1   force =    -0.00709506    0.00795318   -0.00088034
     atom   11 type  1   force =    -0.00709506   -0.00795318   -0.00088034
     atom   12 type  1   force =     0.00709506    0.00795318    0.00088034
     atom   13 type  1   force =     0.01801893   -0.00724156    0.00095027
     atom   14 type  1   force =    -0.01801893    0.00724156   -0.00095027
     atom   15 type  1   force =    -0.01801893   -0.00724156   -0.00095027
     atom   16 type  1   force =     0.01801893    0.00724156    0.00095027
     atom   17 type  2   force =     0.00122611   -0.00007931    0.00006310
     atom   18 type  2   force =    -0.00122611    0.00007931   -0.00006310
     atom   19 type  2   force =    -0.00122611   -0.00007931   -0.00006310
     atom   20 type  2   force =     0.00122611    0.00007931    0.00006310
     atom   21 type  2   force =     0.00298093    0.00559723    0.00030891
     atom   22 type  2   force =    -0.00298093   -0.00559723   -0.00030891
     atom   23 type  2   force =    -0.00298093    0.00559723   -0.00030891
     atom   24 type  2   force =     0.00298093   -0.00559723    0.00030891
     atom   25 type  2   force =    -0.00699094   -0.00143480    0.00037610
     atom   26 type  2   force =     0.00699094    0.00143480   -0.00037610
     atom   27 type  2   force =     0.00699094   -0.00143480   -0.00037610
     atom   28 type  2   force =    -0.00699094    0.00143480    0.00037610
     atom   29 type  2   force =     0.00091909   -0.00128035   -0.00020940
     atom   30 type  2   force =    -0.00091909    0.00128035    0.00020940
     atom   31 type  2   force =    -0.00091909   -0.00128035    0.00020940
     atom   32 type  2   force =     0.00091909    0.00128035   -0.00020940
     atom   33 type  3   force =     0.00582673    0.01365008   -0.00069373
     atom   34 type  3   force =    -0.00582673   -0.01365008    0.00069373
     atom   35 type  3   force =    -0.00582673    0.01365008    0.00069373
     atom   36 type  3   force =     0.00582673   -0.01365008   -0.00069373
     atom   37 type  3   force =    -0.01463752   -0.00211394   -0.00045958
     atom   38 type  3   force =     0.01463752    0.00211394    0.00045958
     atom   39 type  3   force =     0.01463752   -0.00211394    0.00045958
     atom   40 type  3   force =    -0.01463752    0.00211394   -0.00045958
     atom   41 type  4   force =    -0.03779182    0.04888823   -0.00324587
     atom   42 type  4   force =     0.03779182   -0.04888823    0.00324587
     atom   43 type  4   force =     0.03779182    0.04888823    0.00324587
     atom   44 type  4   force =    -0.03779182   -0.04888823   -0.00324587
     atom   45 type  4   force =    -0.02340613   -0.04800378   -0.00072720
     atom   46 type  4   force =     0.02340613    0.04800378    0.00072720
     atom   47 type  4   force =     0.02340613   -0.04800378    0.00072720
     atom   48 type  4   force =    -0.02340613    0.04800378   -0.00072720
     The non-local contrib.  to forces
     atom    1 type  1   force =     0.16169777   -0.24297956    0.01895499
     atom    2 type  1   force =    -0.16169777    0.24297956   -0.01895499
     atom    3 type  1   force =    -0.16169777   -0.24297956   -0.01895499
     atom    4 type  1   force =     0.16169777    0.24297956    0.01895499
     atom    5 type  1   force =    -0.35434022    0.12292412   -0.01142968
     atom    6 type  1   force =     0.35434022   -0.12292412    0.01142968
     atom    7 type  1   force =     0.35434022    0.12292412    0.01142968
     atom    8 type  1   force =    -0.35434022   -0.12292412   -0.01142968
     atom    9 type  1   force =    -0.14066689    0.04176405   -0.00558067
     atom   10 type  1   force =     0.14066689   -0.04176405    0.00558067
     atom   11 type  1   force =     0.14066689    0.04176405    0.00558067
     atom   12 type  1   force =    -0.14066689   -0.04176405   -0.00558067
     atom   13 type  1   force =    -0.27996304    0.37740866   -0.01982496
     atom   14 type  1   force =     0.27996304   -0.37740866    0.01982496
     atom   15 type  1   force =     0.27996304    0.37740866    0.01982496
     atom   16 type  1   force =    -0.27996304   -0.37740866   -0.01982496
     atom   17 type  2   force =     0.00000000    0.00000000    0.00000000
     atom   18 type  2   force =     0.00000000    0.00000000    0.00000000
     atom   19 type  2   force =     0.00000000    0.00000000    0.00000000
     atom   20 type  2   force =     0.00000000    0.00000000    0.00000000
     atom   21 type  2   force =     0.00000000    0.00000000    0.00000000
     atom   22 type  2   force =     0.00000000    0.00000000    0.00000000
     atom   23 type  2   force =     0.00000000    0.00000000    0.00000000
     atom   24 type  2   force =     0.00000000    0.00000000    0.00000000
     atom   25 type  2   force =     0.00000000    0.00000000    0.00000000
     atom   26 type  2   force =     0.00000000    0.00000000    0.00000000
     atom   27 type  2   force =     0.00000000    0.00000000    0.00000000
     atom   28 type  2   force =     0.00000000    0.00000000    0.00000000
     atom   29 type  2   force =     0.00000000    0.00000000    0.00000000
     atom   30 type  2   force =     0.00000000    0.00000000    0.00000000
     atom   31 type  2   force =     0.00000000    0.00000000    0.00000000
     atom   32 type  2   force =     0.00000000    0.00000000    0.00000000
     atom   33 type  3   force =    -0.14335028   -0.35658085   -0.01832183
     atom   34 type  3   force =     0.14335028    0.35658085    0.01832183
     atom   35 type  3   force =     0.14335028   -0.35658085    0.01832183
     atom   36 type  3   force =    -0.14335028    0.35658085   -0.01832183
     atom   37 type  3   force =     0.29215659    0.10020110   -0.01074346
     atom   38 type  3   force =    -0.29215659   -0.10020110    0.01074346
     atom   39 type  3   force =    -0.29215659    0.10020110    0.01074346
     atom   40 type  3   force =     0.29215659   -0.10020110   -0.01074346
     atom   41 type  4   force =     1.56960589   -2.05144582    0.14275177
     atom   42 type  4   force =    -1.56960589    2.05144582   -0.14275177
     atom   43 type  4   force =    -1.56960589   -2.05144582   -0.14275177
     atom   44 type  4   force =     1.56960589    2.05144582    0.14275177
     atom   45 type  4   force =     1.01111968    2.10411798    0.00425299
     atom   46 type  4   force =    -1.01111968   -2.10411798   -0.00425299
     atom   47 type  4   force =    -1.01111968    2.10411798   -0.00425299
     atom   48 type  4   force =     1.01111968   -2.10411798    0.00425299
     The ionic contribution  to forces
     atom    1 type  1   force =     0.29151294    0.68499975    0.00249589
     atom    2 type  1   force =    -0.29151294   -0.68499975   -0.00249589
     atom    3 type  1   force =    -0.29151294    0.68499975   -0.00249589
     atom    4 type  1   force =     0.29151294   -0.68499975    0.00249589
     atom    5 type  1   force =     3.08196193   -0.24066863    0.76546673
     atom    6 type  1   force =    -3.08196193    0.24066863   -0.76546673
     atom    7 type  1   force =    -3.08196193   -0.24066863   -0.76546673
     atom    8 type  1   force =     3.08196193    0.24066863    0.76546673
     atom    9 type  1   force =     5.02040957   -3.63015163    1.36993409
     atom   10 type  1   force =    -5.02040957    3.63015163   -1.36993409
     atom   11 type  1   force =    -5.02040957   -3.63015163   -1.36993409
     atom   12 type  1   force =     5.02040957    3.63015163    1.36993409
     atom   13 type  1   force =     6.37846392   -1.28258871    1.05964916
     atom   14 type  1   force =    -6.37846392    1.28258871   -1.05964916
     atom   15 type  1   force =    -6.37846392   -1.28258871   -1.05964916
     atom   16 type  1   force =     6.37846392    1.28258871    1.05964916
     atom   17 type  2   force =     2.15680763   -0.12007897    0.20953156
     atom   18 type  2   force =    -2.15680763    0.12007897   -0.20953156
     atom   19 type  2   force =    -2.15680763   -0.12007897   -0.20953156
     atom   20 type  2   force =     2.15680763    0.12007897    0.20953156
     atom   21 type  2   force =     0.93595822    1.99410666   -0.11950498
     atom   22 type  2   force =    -0.93595822   -1.99410666    0.11950498
     atom   23 type  2   force =    -0.93595822    1.99410666    0.11950498
     atom   24 type  2   force =     0.93595822   -1.99410666   -0.11950498
     atom   25 type  2   force =    -2.37490853    0.04616696   -0.18302633
     atom   26 type  2   force =     2.37490853   -0.04616696    0.18302633
     atom   27 type  2   force =     2.37490853    0.04616696    0.18302633
     atom   28 type  2   force =    -2.37490853   -0.04616696   -0.18302633
     atom   29 type  2   force =     1.83809694   -1.34849652    0.35295634
     atom   30 type  2   force =    -1.83809694    1.34849652   -0.35295634
     atom   31 type  2   force =    -1.83809694   -1.34849652   -0.35295634
     atom   32 type  2   force =     1.83809694    1.34849652    0.35295634
     atom   33 type  3   force =     3.71424181    3.98576227    0.50778119
     atom   34 type  3   force =    -3.71424181   -3.98576227   -0.50778119
     atom   35 type  3   force =    -3.71424181    3.98576227   -0.50778119
     atom   36 type  3   force =     3.71424181   -3.98576227    0.50778119
     atom   37 type  3   force =    -3.82880272   -0.11609168    0.04758632
     atom   38 type  3   force =     3.82880272    0.11609168   -0.04758632
     atom   39 type  3   force =     3.82880272   -0.11609168   -0.04758632
     atom   40 type  3   force =    -3.82880272    0.11609168    0.04758632
     atom   41 type  4   force =    -7.25604937   10.78103133   -0.86656512
     atom   42 type  4   force =     7.25604937  -10.78103133    0.86656512
     atom   43 type  4   force =     7.25604937   10.78103133    0.86656512
     atom   44 type  4   force =    -7.25604937  -10.78103133   -0.86656512
     atom   45 type  4   force =    -2.34038492   -8.93857560    0.78482949
     atom   46 type  4   force =     2.34038492    8.93857560   -0.78482949
     atom   47 type  4   force =     2.34038492   -8.93857560   -0.78482949
     atom   48 type  4   force =    -2.34038492    8.93857560    0.78482949
     The local contribution  to forces
     atom    1 type  1   force =    -0.43193493   -0.46985252   -0.02026252
     atom    2 type  1   force =     0.43193493    0.46985252    0.02026252
     atom    3 type  1   force =     0.43193493   -0.46985252    0.02026252
     atom    4 type  1   force =    -0.43193493    0.46985252   -0.02026252
     atom    5 type  1   force =    -2.70177961    0.14619233   -0.75330711
     atom    6 type  1   force =     2.70177961   -0.14619233    0.75330711
     atom    7 type  1   force =     2.70177961    0.14619233    0.75330711
     atom    8 type  1   force =    -2.70177961   -0.14619233   -0.75330711
     atom    9 type  1   force =    -4.87264894    3.58043405   -1.36347342
     atom   10 type  1   force =     4.87264894   -3.58043405    1.36347342
     atom   11 type  1   force =     4.87264894    3.58043405    1.36347342
     atom   12 type  1   force =    -4.87264894   -3.58043405   -1.36347342
     atom   13 type  1   force =    -6.08048305    0.89793987   -1.03887426
     atom   14 type  1   force =     6.08048305   -0.89793987    1.03887426
     atom   15 type  1   force =     6.08048305    0.89793987    1.03887426
     atom   16 type  1   force =    -6.08048305   -0.89793987   -1.03887426
     atom   17 type  2   force =    -2.15558150    0.11999968   -0.20946846
     atom   18 type  2   force =     2.15558150   -0.11999968    0.20946846
     atom   19 type  2   force =     2.15558150    0.11999968    0.20946846
     atom   20 type  2   force =    -2.15558150   -0.11999968   -0.20946846
     atom   21 type  2   force =    -0.93297733   -1.98850947    0.11981390
     atom   22 type  2   force =     0.93297733    1.98850947   -0.11981390
     atom   23 type  2   force =     0.93297733   -1.98850947   -0.11981390
     atom   24 type  2   force =    -0.93297733    1.98850947    0.11981390
     atom   25 type  2   force =     2.36791764   -0.04760174    0.18340244
     atom   26 type  2   force =    -2.36791764    0.04760174   -0.18340244
     atom   27 type  2   force =    -2.36791764   -0.04760174   -0.18340244
     atom   28 type  2   force =     2.36791764    0.04760174    0.18340244
     atom   29 type  2   force =    -1.83717786    1.34721614   -0.35316574
     atom   30 type  2   force =     1.83717786   -1.34721614    0.35316574
     atom   31 type  2   force =     1.83717786    1.34721614    0.35316574
     atom   32 type  2   force =    -1.83717786   -1.34721614   -0.35316574
     atom   33 type  3   force =    -3.56506716   -3.61553078   -0.49015341
     atom   34 type  3   force =     3.56506716    3.61553078    0.49015341
     atom   35 type  3   force =     3.56506716   -3.61553078    0.49015341
     atom   36 type  3   force =    -3.56506716    3.61553078   -0.49015341
     atom   37 type  3   force =     3.52200911    0.01377858   -0.03730250
     atom   38 type  3   force =    -3.52200911   -0.01377858    0.03730250
     atom   39 type  3   force =    -3.52200911    0.01377858    0.03730250
     atom   40 type  3   force =     3.52200911   -0.01377858   -0.03730250
     atom   41 type  4   force =     5.64865318   -8.68069951    0.72056775
     atom   42 type  4   force =    -5.64865318    8.68069951   -0.72056775
     atom   43 type  4   force =    -5.64865318   -8.68069951   -0.72056775
     atom   44 type  4   force =     5.64865318    8.68069951    0.72056775
     atom   45 type  4   force =     1.30585925    6.78645540   -0.78980995
     atom   46 type  4   force =    -1.30585925   -6.78645540    0.78980995
     atom   47 type  4   force =    -1.30585925    6.78645540    0.78980995
     atom   48 type  4   force =     1.30585925   -6.78645540   -0.78980995
     The core correction contribution to forces
     atom    1 type  1   force =     0.00000000    0.00000000    0.00000000
     atom    2 type  1   force =     0.00000000    0.00000000    0.00000000
     atom    3 type  1   force =     0.00000000    0.00000000    0.00000000
     atom    4 type  1   force =     0.00000000    0.00000000    0.00000000
     atom    5 type  1   force =     0.00000000    0.00000000    0.00000000
     atom    6 type  1   force =     0.00000000    0.00000000    0.00000000
     atom    7 type  1   force =     0.00000000    0.00000000    0.00000000
     atom    8 type  1   force =     0.00000000    0.00000000    0.00000000
     atom    9 type  1   force =     0.00000000    0.00000000    0.00000000
     atom   10 type  1   force =     0.00000000    0.00000000    0.00000000
     atom   11 type  1   force =     0.00000000    0.00000000    0.00000000
     atom   12 type  1   force =     0.00000000    0.00000000    0.00000000
     atom   13 type  1   force =     0.00000000    0.00000000    0.00000000
     atom   14 type  1   force =     0.00000000    0.00000000    0.00000000
     atom   15 type  1   force =     0.00000000    0.00000000    0.00000000
     atom   16 type  1   force =     0.00000000    0.00000000    0.00000000
     atom   17 type  2   force =     0.00000000    0.00000000    0.00000000
     atom   18 type  2   force =     0.00000000    0.00000000    0.00000000
     atom   19 type  2   force =     0.00000000    0.00000000    0.00000000
     atom   20 type  2   force =     0.00000000    0.00000000    0.00000000
     atom   21 type  2   force =     0.00000000    0.00000000    0.00000000
     atom   22 type  2   force =     0.00000000    0.00000000    0.00000000
     atom   23 type  2   force =     0.00000000    0.00000000    0.00000000
     atom   24 type  2   force =     0.00000000    0.00000000    0.00000000
     atom   25 type  2   force =     0.00000000    0.00000000    0.00000000
     atom   26 type  2   force =     0.00000000    0.00000000    0.00000000
     atom   27 type  2   force =     0.00000000    0.00000000    0.00000000
     atom   28 type  2   force =     0.00000000    0.00000000    0.00000000
     atom   29 type  2   force =     0.00000000    0.00000000    0.00000000
     atom   30 type  2   force =     0.00000000    0.00000000    0.00000000
     atom   31 type  2   force =     0.00000000    0.00000000    0.00000000
     atom   32 type  2   force =     0.00000000    0.00000000    0.00000000
     atom   33 type  3   force =     0.00000000    0.00000000    0.00000000
     atom   34 type  3   force =     0.00000000    0.00000000    0.00000000
     atom   35 type  3   force =     0.00000000    0.00000000    0.00000000
     atom   36 type  3   force =     0.00000000    0.00000000    0.00000000
     atom   37 type  3   force =     0.00000000    0.00000000    0.00000000
     atom   38 type  3   force =     0.00000000    0.00000000    0.00000000
     atom   39 type  3   force =     0.00000000    0.00000000    0.00000000
     atom   40 type  3   force =     0.00000000    0.00000000    0.00000000
     atom   41 type  4   force =     0.00000000    0.00000000    0.00000000
     atom   42 type  4   force =     0.00000000    0.00000000    0.00000000
     atom   43 type  4   force =     0.00000000    0.00000000    0.00000000
     atom   44 type  4   force =     0.00000000    0.00000000    0.00000000
     atom   45 type  4   force =     0.00000000    0.00000000    0.00000000
     atom   46 type  4   force =     0.00000000    0.00000000    0.00000000
     atom   47 type  4   force =     0.00000000    0.00000000    0.00000000
     atom   48 type  4   force =     0.00000000    0.00000000    0.00000000
     The Hubbard contrib.    to forces
     atom    1 type  1   force =     0.00000000    0.00000000    0.00000000
     atom    2 type  1   force =     0.00000000    0.00000000    0.00000000
     atom    3 type  1   force =     0.00000000    0.00000000    0.00000000
     atom    4 type  1   force =     0.00000000    0.00000000    0.00000000
     atom    5 type  1   force =     0.00000000    0.00000000    0.00000000
     atom    6 type  1   force =     0.00000000    0.00000000    0.00000000
     atom    7 type  1   force =     0.00000000    0.00000000    0.00000000
     atom    8 type  1   force =     0.00000000    0.00000000    0.00000000
     atom    9 type  1   force =     0.00000000    0.00000000    0.00000000
     atom   10 type  1   force =     0.00000000    0.00000000    0.00000000
     atom   11 type  1   force =     0.00000000    0.00000000    0.00000000
     atom   12 type  1   force =     0.00000000    0.00000000    0.00000000
     atom   13 type  1   force =     0.00000000    0.00000000    0.00000000
     atom   14 type  1   force =     0.00000000    0.00000000    0.00000000
     atom   15 type  1   force =     0.00000000    0.00000000    0.00000000
     atom   16 type  1   force =     0.00000000    0.00000000    0.00000000
     atom   17 type  2   force =     0.00000000    0.00000000    0.00000000
     atom   18 type  2   force =     0.00000000    0.00000000    0.00000000
     atom   19 type  2   force =     0.00000000    0.00000000    0.00000000
     atom   20 type  2   force =     0.00000000    0.00000000    0.00000000
     atom   21 type  2   force =     0.00000000    0.00000000    0.00000000
     atom   22 type  2   force =     0.00000000    0.00000000    0.00000000
     atom   23 type  2   force =     0.00000000    0.00000000    0.00000000
     atom   24 type  2   force =     0.00000000    0.00000000    0.00000000
     atom   25 type  2   force =     0.00000000    0.00000000    0.00000000
     atom   26 type  2   force =     0.00000000    0.00000000    0.00000000
     atom   27 type  2   force =     0.00000000    0.00000000    0.00000000
     atom   28 type  2   force =     0.00000000    0.00000000    0.00000000
     atom   29 type  2   force =     0.00000000    0.00000000    0.00000000
     atom   30 type  2   force =     0.00000000    0.00000000    0.00000000
     atom   31 type  2   force =     0.00000000    0.00000000    0.00000000
     atom   32 type  2   force =     0.00000000    0.00000000    0.00000000
     atom   33 type  3   force =     0.00000000    0.00000000    0.00000000
     atom   34 type  3   force =     0.00000000    0.00000000    0.00000000
     atom   35 type  3   force =     0.00000000    0.00000000    0.00000000
     atom   36 type  3   force =     0.00000000    0.00000000    0.00000000
     atom   37 type  3   force =     0.00000000    0.00000000    0.00000000
     atom   38 type  3   force =     0.00000000    0.00000000    0.00000000
     atom   39 type  3   force =     0.00000000    0.00000000    0.00000000
     atom   40 type  3   force =     0.00000000    0.00000000    0.00000000
     atom   41 type  4   force =     0.00000000    0.00000000    0.00000000
     atom   42 type  4   force =     0.00000000    0.00000000    0.00000000
     atom   43 type  4   force =     0.00000000    0.00000000    0.00000000
     atom   44 type  4   force =     0.00000000    0.00000000    0.00000000
     atom   45 type  4   force =     0.00000000    0.00000000    0.00000000
     atom   46 type  4   force =     0.00000000    0.00000000    0.00000000
     atom   47 type  4   force =     0.00000000    0.00000000    0.00000000
     atom   48 type  4   force =     0.00000000    0.00000000    0.00000000
     The SCF correction term to forces
     atom    1 type  1   force =    -0.00000044    0.00000085    0.00000001
     atom    2 type  1   force =     0.00000044   -0.00000085   -0.00000001
     atom    3 type  1   force =     0.00000044    0.00000085   -0.00000001
     atom    4 type  1   force =    -0.00000044   -0.00000085    0.00000001
     atom    5 type  1   force =     0.00000003   -0.00000170    0.00000023
     atom    6 type  1   force =    -0.00000003    0.00000170   -0.00000023
     atom    7 type  1   force =    -0.00000003   -0.00000170   -0.00000023
     atom    8 type  1   force =     0.00000003    0.00000170    0.00000023
     atom    9 type  1   force =     0.00000131    0.00000035    0.00000033
     atom   10 type  1   force =    -0.00000131   -0.00000035   -0.00000033
     atom   11 type  1   force =    -0.00000131    0.00000035   -0.00000033
     atom   12 type  1   force =     0.00000131   -0.00000035    0.00000033
     atom   13 type  1   force =     0.00000109   -0.00000138    0.00000034
     atom   14 type  1   force =    -0.00000109    0.00000138   -0.00000034
     atom   15 type  1   force =    -0.00000109   -0.00000138   -0.00000034
     atom   16 type  1   force =     0.00000109    0.00000138    0.00000034
     atom   17 type  2   force =    -0.00000002   -0.00000002    0.00000000
     atom   18 type  2   force =     0.00000002    0.00000002   -0.00000000
     atom   19 type  2   force =     0.00000002   -0.00000002   -0.00000000
     atom   20 type  2   force =    -0.00000002    0.00000002    0.00000000
     atom   21 type  2   force =     0.00000003    0.00000004   -0.00000000
     atom   22 type  2   force =    -0.00000003   -0.00000004    0.00000000
     atom   23 type  2   force =    -0.00000003    0.00000004    0.00000000
     atom   24 type  2   force =     0.00000003   -0.00000004   -0.00000000
     atom   25 type  2   force =    -0.00000005   -0.00000002   -0.00000000
     atom   26 type  2   force =     0.00000005    0.00000002    0.00000000
     atom   27 type  2   force =     0.00000005   -0.00000002    0.00000000
     atom   28 type  2   force =    -0.00000005    0.00000002   -0.00000000
     atom   29 type  2   force =     0.00000000    0.00000003    0.00000001
     atom   30 type  2   force =    -0.00000000   -0.00000003   -0.00000001
     atom   31 type  2   force =    -0.00000000    0.00000003   -0.00000001
     atom   32 type  2   force =     0.00000000   -0.00000003    0.00000001
     atom   33 type  3   force =     0.00000236   -0.00000056    0.00000032
     atom   34 type  3   force =    -0.00000236    0.00000056   -0.00000032
     atom   35 type  3   force =    -0.00000236   -0.00000056   -0.00000032
     atom   36 type  3   force =     0.00000236    0.00000056    0.00000032
     atom   37 type  3   force =    -0.00000049   -0.00000195    0.00000005
     atom   38 type  3   force =     0.00000049    0.00000195   -0.00000005
     atom   39 type  3   force =     0.00000049   -0.00000195   -0.00000005
     atom   40 type  3   force =    -0.00000049    0.00000195    0.00000005
     atom   41 type  4   force =    -0.00000152    0.00000223   -0.00000027
     atom   42 type  4   force =     0.00000152   -0.00000223    0.00000027
     atom   43 type  4   force =     0.00000152    0.00000223    0.00000027
     atom   44 type  4   force =    -0.00000152   -0.00000223   -0.00000027
     atom   45 type  4   force =    -0.00000013   -0.00000155    0.00000027
     atom   46 type  4   force =     0.00000013    0.00000155   -0.00000027
     atom   47 type  4   force =     0.00000013   -0.00000155   -0.00000027
     atom   48 type  4   force =    -0.00000013    0.00000155    0.00000027

     Total force =     0.204110     Total SCF correction =     0.000011


     Computing stress (Cartesian axis) and pressure

          total   stress  (Ry/bohr**3)                   (kbar)     P=      -65.09
  -0.00039808   0.00000000   0.00001092          -58.56        0.00        1.61
   0.00000000  -0.00022267   0.00000000            0.00      -32.76        0.00
   0.00001092   0.00000000  -0.00070667            1.61        0.00     -103.95

     kinetic stress (kbar)  11934.43      0.00    -32.26
                                0.00  11493.57      0.00
                              -32.26      0.00  12913.54

     local   stress (kbar) -20366.52     -0.00    962.05
                               -0.00 -25117.59      0.00
                              962.05      0.00   3195.71

     nonloc. stress (kbar)   3164.52      0.00      4.97
                                0.00   3192.20      0.00
                                4.97      0.00   3019.18

     hartree stress (kbar)   6420.38     -0.00   -545.86
                               -0.00   8068.87     -0.00
                             -545.86     -0.00  -1245.63

     exc-cor stress (kbar)  -2123.15      0.00      1.42
                                0.00  -2115.95     -0.00
                                1.42     -0.00  -2178.06

     corecor stress (kbar)      0.00      0.00      0.00
                                0.00      0.00      0.00
                                0.00      0.00      0.00

     ewald   stress (kbar)    911.78      0.00   -388.72
                                0.00   4446.15      0.00
                             -388.72      0.00 -15808.69

     hubbard stress (kbar)      0.00      0.00      0.00
                                0.00      0.00      0.00
                                0.00      0.00      0.00

     DFT-D   stress (kbar)      0.00      0.00      0.00
                                0.00      0.00      0.00
                                0.00      0.00      0.00

     XDM     stress (kbar)      0.00      0.00      0.00
                                0.00      0.00      0.00
                                0.00      0.00      0.00

     dft-nl  stress (kbar)      0.00      0.00      0.00
                                0.00      0.00      0.00
                                0.00      0.00      0.00

     TS-vdW  stress (kbar)      0.00      0.00      0.00
                                0.00      0.00      0.00
                                0.00      0.00      0.00

     MDB     stress (kbar)      0.00      0.00      0.00
                                0.00      0.00      0.00
                                0.00      0.00      0.00

     3D-RISM stress (kbar)      0.00      0.00      0.00
                                0.00      0.00      0.00
                                0.00      0.00      0.00


     Writing all to output data dir /home/rr/calc_QE/uracil/nmr/uracil.save/
 
     init_run     :      0.81s CPU      1.04s WALL (       1 calls)
     electrons    :     17.59s CPU     22.32s WALL (       1 calls)
     forces       :      0.21s CPU      0.22s WALL (       1 calls)
     stress       :      0.33s CPU      0.34s WALL (       1 calls)

     Called by init_run:
     wfcinit      :      0.36s CPU      0.53s WALL (       1 calls)
     wfcinit:atom :      0.00s CPU      0.01s WALL (       2 calls)
     wfcinit:wfcr :      0.35s CPU      0.51s WALL (       2 calls)
     potinit      :      0.19s CPU      0.21s WALL (       1 calls)
     hinit0       :      0.14s CPU      0.15s WALL (       1 calls)

     Called by electrons:
     c_bands      :     15.52s CPU     19.46s WALL (      16 calls)
     sum_band     :      1.64s CPU      2.23s WALL (      16 calls)
     v_of_rho     :      0.25s CPU      0.36s WALL (      17 calls)
     v_h          :      0.02s CPU      0.03s WALL (      17 calls)
     v_xc         :      0.23s CPU      0.34s WALL (      17 calls)
     mix_rho      :      0.06s CPU      0.07s WALL (      16 calls)

     Called by c_bands:
     init_us_2    :      0.03s CPU      0.04s WALL (      70 calls)
     init_us_2:cp :      0.03s CPU      0.04s WALL (      70 calls)
     cegterg      :     15.16s CPU     18.96s WALL (      32 calls)

     Called by sum_band:
     sum_band:wei :      0.00s CPU      0.00s WALL (      16 calls)
     sum_band:loo :      1.58s CPU      2.11s WALL (      16 calls)
     sum_band:buf :      0.04s CPU      0.04s WALL (      32 calls)
     sum_band:ini :      0.01s CPU      0.02s WALL (      32 calls)

     Called by *egterg:
     cdiaghg      :      1.92s CPU      1.94s WALL (     199 calls)
     cegterg:over :      1.09s CPU      1.15s WALL (     167 calls)
     cegterg:upda :      0.82s CPU      0.87s WALL (     167 calls)
     cegterg:last :      1.36s CPU      1.37s WALL (      90 calls)
     h_psi        :      9.90s CPU     13.58s WALL (     201 calls)
     g_psi        :      0.02s CPU      0.03s WALL (     167 calls)

     Called by h_psi:
     h_psi:calbec :      0.16s CPU      0.20s WALL (     201 calls)
     vloc_psi     :      9.44s CPU     12.95s WALL (     201 calls)
     add_vuspsi   :      0.26s CPU      0.27s WALL (     201 calls)

     General routines
     calbec       :      0.18s CPU      0.21s WALL (     211 calls)
     fft          :      0.14s CPU      0.25s WALL (     177 calls)
     ffts         :      0.01s CPU      0.02s WALL (      16 calls)
     fftw         :     10.51s CPU     14.39s WALL (   21096 calls)
 
     Parallel routines
 
     PWSCF        :     19.12s CPU     24.30s WALL

 
   This run was terminated on:  20:55:46  22Jan2026            

=------------------------------------------------------------------------------=
   JOB DONE.
=------------------------------------------------------------------------------=
