
                                 *****************
                                 * O   R   C   A *
                                 *****************

                                            #,                                       
                                            ###                                      
                                            ####                                     
                                            #####                                    
                                            ######                                   
                                           ########,                                 
                                     ,,################,,,,,                         
                               ,,#################################,,                 
                          ,,##########################################,,             
                       ,#########################################, ''#####,          
                    ,#############################################,,   '####,        
                  ,##################################################,,,,####,       
                ,###########''''           ''''###############################       
              ,#####''   ,,,,##########,,,,          '''####'''          '####       
            ,##' ,,,,###########################,,,                        '##       
           ' ,,###''''                  '''############,,,                           
         ,,##''                                '''############,,,,        ,,,,,,###''
      ,#''                                            '''#######################'''  
     '                                                          ''''####''''         
             ,#######,   #######,   ,#######,      ##                                
            ,#'     '#,  ##    ##  ,#'     '#,    #''#        ,####,   ,####,        
            ##       ##  ##   ,#'  ##            #'  '#       #'       #'  '#        
            ##       ##  #######   ##           ,######,      #####,   #    #        
            '#,     ,#'  ##    ##  '#,     ,#' ,#      #,     #,   #   #,  ,#        
             '#######'   ##     ##  '#######'  #'      '#     '####' # '####'        



                #########################################################
                #                        -***-                          #
                #          Department of theory and spectroscopy        #
                #                                                       #
                #                      Frank Neese                      #
                #                                                       #
                #     Directorship, Architecture, Infrastructure        #
                #                    SHARK, DRIVERS                     #
                #        Core code/Algorithms in most modules           #
                #                                                       #
                #        Max Planck Institute fuer Kohlenforschung      #
                #                Kaiser Wilhelm Platz 1                 #
                #                 D-45470 Muelheim/Ruhr                 #
                #                      Germany                          #
                #                                                       #
                #                  All rights reserved                  #
                #                        -***-                          #
                #########################################################


                         Program Version 6.0.0  -   RELEASE  -


 With contributions from (in alphabetic order):
   Daniel Aravena         : Magnetic Suceptibility
   Michael Atanasov       : Ab Initio Ligand Field Theory (pilot matlab implementation)
   Alexander A. Auer      : GIAO ZORA, VPT2 properties, NMR spectrum
   Ute Becker             : All parallelization in ORCA, NUMFREQ, NUMCALC
   Giovanni Bistoni       : ED, misc. LED, open-shell LED, HFLD
   Martin Brehm           : Molecular dynamics
   Dmytro Bykov           : pre 5.0 version of the SCF Hessian
   Marcos Casanova-Páez   : Triplet and SCS-CIS(D). UHF-(DLPNO)-IP/EA/STEOM-CCSD. UHF-CVS-IP/STEOM-CCSD
   Vijay G. Chilkuri      : MRCI spin determinant printing, contributions to CSF-ICE
   Pauline Colinet        : FMM embedding
   Dipayan Datta          : RHF DLPNO-CCSD density
   Achintya Kumar Dutta   : EOM-CC, STEOM-CC
   Nicolas Foglia         : Exact transition moments, OPA infrastructure, MCD improvements
   Dmitry Ganyushin       : Spin-Orbit,Spin-Spin,Magnetic field MRCI
   Miquel Garcia          : C-PCM and meta-GGA Hessian, CCSD/C-PCM, Gaussian charge scheme
   Tiago L. C. Gouveia    : GS-ROHF, GS-ROCIS
   Yang Guo               : DLPNO-NEVPT2, F12-NEVPT2, CIM, IAO-localization
   Andreas Hansen         : Spin unrestricted coupled pair/coupled cluster methods
   Ingolf Harden          : AUTO-CI MPn and infrastructure 
   Benjamin Helmich-Paris : MC-RPA, TRAH-(SCF,CASSCF), AVAS, COSX integrals, SCF dyn. polar.
   Lee Huntington         : MR-EOM, pCC
   Robert Izsak           : Overlap fitted RIJCOSX, COSX-SCS-MP3, EOM
   Riya Kayal             : Wick's Theorem for AUTO-CI, AUTO-CI UHF-CCSDT
   Emily Kempfer          : AUTO-CI, RHF CISDT and CCSDT
   Christian Kollmar      : KDIIS, OOCD, Brueckner-CCSD(T), CCSD density, CASPT2, CASPT2-K, improved NEVPT2
   Axel Koslowski         : Symmetry handling
   Simone Kossmann        : Meta GGA functionals, TD-DFT gradient, OOMP2, (MP2 Hessian; deprecated post 5.0)
   Lucas Lang             : DCDCAS
   Marvin Lechner         : AUTO-CI (C++ implementation), FIC-MRCC
   Spencer Leger          : CASSCF response
   Dagmar Lenk            : GEPOL surface, SMD, ORCA-2-JSON
   Dimitrios Liakos       : Extrapolation schemes; Compound Job, initial MDCI parallelization
   Dimitrios Manganas     : Further ROCIS development; embedding schemes. LFT, Crystal Embedding
   Dimitrios Pantazis     : SARC Basis sets
   Anastasios Papadopoulos: AUTO-CI, single reference methods and gradients
   Taras Petrenko         : pre 6.0 DFT Hessian and TD-DFT gradient, (ASA, deprecated), ECA, 1-Electron XAS/XES, NRVS
   Peter Pinski           : DLPNO-MP2, DLPNO-MP2 Gradient
   Christoph Reimann      : Effective Core Potentials
   Marius Retegan         : Local ZFS, SOC
   Christoph Riplinger    : Optimizer, TS searches, QM/MM, DLPNO-CCSD(T), (RO)-DLPNO pert. Triples
   Michael Roemelt        : Original ROCIS implementation
   Masaaki Saitow         : Open-shell DLPNO-CCSD energy and density
   Barbara Sandhoefer     : DKH picture change effects
   Kantharuban Sivalingam : CASSCF convergence/infrastructure, NEVPT2 and variants, FIC-MRCI
   Bernardo de Souza      : ESD, SOC TD-DFT
   Georgi Stoychev        : AutoAux, RI-MP2 NMR, DLPNO-MP2 response, X2C
   Van Anh Tran           : RI-MP2 g-tensors
   Willem Van den Heuvel  : Paramagnetic NMR
   Zikuan Wang            : NOTCH, Electric field optimization 
   Frank Wennmohs         : Technical directorship and infrastructure
   Hang Xu                : AUTO-CI-Response properties 


 We gratefully acknowledge several colleagues who have allowed us to
 interface, adapt or use parts of their codes:
   Stefan Grimme, W. Hujo, H. Kruse, P. Pracht,  : VdW corrections, initial TS optimization,
                  C. Bannwarth, S. Ehlert,         DFT functionals, gCP, sTDA/sTD-DF
                  L. Wittmann, M. Mueller
   Ed Valeev, F. Pavosevic, A. Kumar             : LibInt (2-el integral package), F12 methods
   Garnet Chan, S. Sharma, J. Yang, R. Olivares  : DMRG
   Ulf Ekstrom                                   : XCFun DFT Library
   Mihaly Kallay                                 : mrcc  (arbitrary order and MRCC methods)
   Frank Weinhold                                : gennbo (NPA and NBO analysis)
   Simon Mueller                                 : openCOSMO-RS
   Christopher J. Cramer and Donald G. Truhlar   : smd solvation model
   Lars Goerigk                                  : TD-DFT with DH, B97 family of functionals
   V. Asgeirsson, H. Jonsson                     : NEB implementation
   FAccTs GmbH                                   : IRC, NEB, NEB-TS, DLPNO-Multilevel, CI-OPT
                                                   MM, QMMM, 2- and 3-layer-ONIOM, Crystal-QMMM,
                                                   LR-CPCM, SF, NACMEs, symmetry and pop. for TD-DFT,
                                                   nearIR, NL-DFT gradient (VV10), updates on ESD,
                                                   ML-optimized integration grids, MBIS, APM,
                                                   GOAT, DOCKER, SOLVATOR, interface openCOSMO-RS
   S Lehtola, MJT Oliveira, MAL Marques          : LibXC Library
   Liviu Ungur et al                             : ANISO software


 Your calculation uses the libint2 library for the computation of 2-el integrals
 For citations please refer to: http://libint.valeyev.net

 Your ORCA version has been built with support for libXC version: 6.2.2
 For citations please refer to: https://libxc.gitlab.io

 This ORCA versions uses:
   CBLAS   interface :  Fast vector & matrix operations
   LAPACKE interface :  Fast linear algebra routines
   SCALAPACK package :  Parallel linear algebra routines
   Shared memory     :  Shared parallel matrices




***************************************
The coordinates will be read from file: opt.xyz
***************************************



Information: The global flag for NMR shieldings has been found
             ==>> will calculate the shieldings for all atoms in the system

================================================================================

----- Orbital basis set information -----
Your calculation utilizes the basis: 6-31+G(d,p)
   H-He, Li-Ne : W. J. Hehre, R. Ditchfield and J.A. Pople, J. Chem. Phys. 56, 2257 (1972).
                 Note: He and Ne are unpublished basis sets taken from the Gaussian program.
                 Note: Li and B from J. D. Dill and J. A. Pople, J. Chem. Phys. 62, 2921 (1975).
   Na - Ar     : M. M. Francl, W. J. Pietro, W. J. Hehre, J. S. Binkley, M. S. Gordon, 
                 D. J. DeFrees and J. A. Pople, J. Chem. Phys. 77, 3654 (1982).
   K - Zn      : V. A. Rassolov, J. A. Pople, M. A. Ratner, and T. L. Windus, J. Chem. Phys. 109, 1223 (1998).
   Additional Pol./Diff. from the 6-311G equivalent.

----- AuxJ basis set information -----
Your calculation utilizes the auxiliary basis: def2/J
   F. Weigend, Phys. Chem. Chem. Phys. 8, 1057 (2006).

================================================================================
                                        WARNINGS
                       Please study these warnings very carefully!
================================================================================


================================================================================
                                       INPUT FILE
================================================================================
NAME = nmr.com
|  1> ! B3LYP 6-31+G(d,p) def2/J RIJCOSX NMR
|  2> 
|  3> * xyzfile 0 1 opt.xyz
|  4> 
|  5> 
|  6>                          ****END OF INPUT****
================================================================================

                       ****************************
                       * Single Point Calculation *
                       ****************************

---------------------------------
CARTESIAN COORDINATES (ANGSTROEM)
---------------------------------
  C     -0.887734   -0.016948   -0.263654
  C      0.467027    0.365019    0.325514
  O      1.552641   -0.351472   -0.267856
  H     -1.121956   -1.071362   -0.068352
  H     -0.895443    0.139919   -1.347261
  H     -1.687103    0.587777    0.181532
  H      0.684364    1.420272    0.133397
  H      0.464362    0.222877    1.417353
  H      1.423842   -1.296083   -0.110673

----------------------------
CARTESIAN COORDINATES (A.U.)
----------------------------
  NO LB      ZA    FRAG     MASS         X           Y           Z
   0 C     6.0000    0    12.011   -1.677574   -0.032027   -0.498235
   1 C     6.0000    0    12.011    0.882553    0.689785    0.615132
   2 O     8.0000    0    15.999    2.934066   -0.664186   -0.506175
   3 H     1.0000    0     1.008   -2.120189   -2.024581   -0.129167
   4 H     1.0000    0     1.008   -1.692142    0.264408   -2.545954
   5 H     1.0000    0     1.008   -3.188163    1.110737    0.343047
   6 H     1.0000    0     1.008    1.293261    2.683924    0.252084
   7 H     1.0000    0     1.008    0.877517    0.421177    2.678409
   8 H     1.0000    0     1.008    2.690672   -2.449241   -0.209142

--------------------------------
INTERNAL COORDINATES (ANGSTROEM)
--------------------------------
 C      0   0   0     0.000000000000     0.00000000     0.00000000
 C      1   0   0     1.525907832205     0.00000000     0.00000000
 O      2   1   0     1.429686805306   112.85942888     0.00000000
 H      1   2   3     1.097630131243   111.17507181    63.31582767
 H      1   2   3     1.094928890368   110.64064004   303.07038015
 H      1   2   3     1.096756248404   110.63130940   182.77537802
 H      2   1   3     1.094396364483   110.48146827   117.26929994
 H      2   1   3     1.101055978661   110.39032020   235.91487836
 H      3   2   1     0.966221851083   108.73582107   299.14867887

---------------------------
INTERNAL COORDINATES (A.U.)
---------------------------
 C      0   0   0     0.000000000000     0.00000000     0.00000000
 C      1   0   0     2.883547908473     0.00000000     0.00000000
 O      2   1   0     2.701716519309   112.85942888     0.00000000
 H      1   2   3     2.074220344390   111.17507181    63.31582767
 H      1   2   3     2.069115738914   110.64064004   303.07038015
 H      1   2   3     2.072568945150   110.63130940   182.77537802
 H      2   1   3     2.068109410831   110.48146827   117.26929994
 H      2   1   3     2.080694257786   110.39032020   235.91487836
 H      3   2   1     1.825894683157   108.73582107   299.14867887

---------------------
BASIS SET INFORMATION
---------------------
There are 3 groups of distinct atoms

 Group   1 Type C   : 11s5p1d contracted to 4s3p1d pattern {6311/311/1}
 Group   2 Type O   : 11s5p1d contracted to 4s3p1d pattern {6311/311/1}
 Group   3 Type H   : 4s1p contracted to 2s1p pattern {31/1}

Atom   0C    basis set group =>   1
Atom   1C    basis set group =>   1
Atom   2O    basis set group =>   2
Atom   3H    basis set group =>   3
Atom   4H    basis set group =>   3
Atom   5H    basis set group =>   3
Atom   6H    basis set group =>   3
Atom   7H    basis set group =>   3
Atom   8H    basis set group =>   3
---------------------------------
AUXILIARY/J BASIS SET INFORMATION
---------------------------------
There are 3 groups of distinct atoms

 Group   1 Type C   : 12s5p4d2f1g contracted to 6s4p3d1f1g pattern {711111/2111/211/2/1}
 Group   2 Type O   : 12s5p4d2f1g contracted to 6s4p3d1f1g pattern {711111/2111/211/2/1}
 Group   3 Type H   : 5s2p1d contracted to 3s1p1d pattern {311/2/1}

Atom   0C    basis set group =>   1
Atom   1C    basis set group =>   1
Atom   2O    basis set group =>   2
Atom   3H    basis set group =>   3
Atom   4H    basis set group =>   3
Atom   5H    basis set group =>   3
Atom   6H    basis set group =>   3
Atom   7H    basis set group =>   3
Atom   8H    basis set group =>   3
------------------------------------------------------------------------------
                             ORCA STARTUP CALCULATIONS
                           -- RI-GTO INTEGRALS CHOSEN --
------------------------------------------------------------------------------
------------------------------------------------------------------------------
                   ___                                                        
                  /   \      - P O W E R E D   B Y -                         
                 /     \                                                     
                 |  |  |   _    _      __       _____    __    __             
                 |  |  |  | |  | |    /  \     |  _  \  |  |  /  |          
                  \  \/   | |  | |   /    \    | | | |  |  | /  /          
                 / \  \   | |__| |  /  /\  \   | |_| |  |  |/  /          
                |  |  |   |  __  | /  /__\  \  |    /   |      \           
                |  |  |   | |  | | |   __   |  |    \   |  |\   \          
                \     /   | |  | | |  |  |  |  | |\  \  |  | \   \       
                 \___/    |_|  |_| |__|  |__|  |_| \__\ |__|  \__/        
                                                                              
                      - O R C A' S   B I G   F R I E N D -                    
                                      &                                       
                       - I N T E G R A L  F E E D E R -                       
                                                                              
 v1 FN, 2020, v2 2021, v3 2022-2024                                           
------------------------------------------------------------------------------


----------------------
SHARK INTEGRAL PACKAGE
----------------------

Number of atoms                             ...      9
Number of basis functions                   ...     84
Number of shells                            ...     42
Maximum angular momentum                    ...      2
Integral batch strategy                     ... SHARK/LIBINT Hybrid
RI-J (if used) integral strategy            ... SPLIT-RIJ (Revised 2003 algorithm where possible)
Printlevel                                  ...      1
Contraction scheme used                     ... SEGMENTED contraction
Prescreening option                         ... SCHWARTZ
   Thresh                                   ... 1.000e-10
   Tcut                                     ... 1.000e-11
   Tpresel                                  ... 1.000e-11 
Coulomb Range Separation                    ... NOT USED
Exchange Range Separation                   ... NOT USED
Multipole approximations                    ... NOT USED
Finite Nucleus Model                        ... NOT USED
CABS basis                                  ... NOT available
Auxiliary Coulomb fitting basis             ... AVAILABLE
   # of basis functions in Aux-J            ...    213
   # of shells in Aux-J                     ...     75
   Maximum angular momentum in Aux-J        ...      4
Auxiliary J/K fitting basis                 ... NOT available
Auxiliary Correlation fitting basis         ... NOT available
Auxiliary 'external' fitting basis          ... NOT available

Checking pre-screening integrals            ... done (  0.0 sec) Dimension = 42
Check shell pair data                       ... done (  0.0 sec)
Shell pair information
Shell pair cut-off parameter TPreSel        ...   1.0e-11
Total number of shell pairs                 ...       903
Shell pairs after pre-screening             ...       900
Total number of primitive shell pairs       ...      3402
Primitive shell pairs kept                  ...      2857
          la=0 lb=0:    298 shell pairs
          la=1 lb=0:    359 shell pairs
          la=1 lb=1:    120 shell pairs
          la=2 lb=0:     72 shell pairs
          la=2 lb=1:     45 shell pairs
          la=2 lb=2:      6 shell pairs

Calculating one electron integrals          ... done (  0.0 sec)
Calculating RI/J V-Matrix + Cholesky decomp.... done (  0.0 sec)
Calculating Nuclear repulsion               ... done (  0.0 sec) ENN=     81.318526779535 Eh

Diagonalization of the overlap matrix:
Smallest eigenvalue                        ... 2.915e-04
Time for diagonalization                   ...    0.009 sec
Threshold for overlap eigenvalues          ... 1.000e-07
Number of eigenvalues below threshold      ... 0
Time for construction of square roots      ...    0.001 sec
Total time needed                          ...    0.010 sec

-------------------
DFT GRID GENERATION
-------------------

General Integration Accuracy     IntAcc      ... 4.388
Radial Grid Type                 RadialGrid  ... OptM3 with GC (2021)
Angular Grid (max. ang.)         AngularGrid ... 4 (Lebedev-302)
Angular grid pruning method      GridPruning ... 4 (adaptive)
Weight generation scheme         WeightScheme... mBecke (2022)
Basis function cutoff            BFCut       ... 1.0000e-10
Integration weight cutoff        WCut        ... 1.0000e-14
Partially contracted basis set               ... off
Rotationally invariant grid construction     ... off
Angular grids for H and He will be reduced by one unit
Diffuse basis detected: some atoms will have their outermost
                        angular grid increased by 1.

Total number of grid points                  ...    38617
Total number of batches                      ...      609
Average number of points per batch           ...       63
Average number of grid points per atom       ...     4291

--------------------
COSX GRID GENERATION
--------------------

GRIDX 1
-------
General Integration Accuracy     IntAcc      ... 3.816
Radial Grid Type                 RadialGrid  ... OptM3 with GC (2021)
Angular Grid (max. ang.)         AngularGrid ... 1 (Lebedev-50)
Angular grid pruning method      GridPruning ... 4 (adaptive)
Weight generation scheme         WeightScheme... mBecke (2022)
Basis function cutoff            BFCut       ... 1.0000e-10
Integration weight cutoff        WCut        ... 1.0000e-14
Partially contracted basis set               ... on
Rotationally invariant grid construction     ... off
Angular grids for H and He will be reduced by one unit
Diffuse basis detected: some atoms will have their outermost
                        angular grid increased by 1.

Total number of grid points                  ...     5012
Total number of batches                      ...       44
Average number of points per batch           ...      113
Average number of grid points per atom       ...      557
UseSFitting                                  ... on

GRIDX 2
-------
General Integration Accuracy     IntAcc      ... 4.020
Radial Grid Type                 RadialGrid  ... OptM3 with GC (2021)
Angular Grid (max. ang.)         AngularGrid ... 2 (Lebedev-110)
Angular grid pruning method      GridPruning ... 4 (adaptive)
Weight generation scheme         WeightScheme... mBecke (2022)
Basis function cutoff            BFCut       ... 1.0000e-10
Integration weight cutoff        WCut        ... 1.0000e-14
Partially contracted basis set               ... on
Rotationally invariant grid construction     ... off
Angular grids for H and He will be reduced by one unit
Diffuse basis detected: some atoms will have their outermost
                        angular grid increased by 1.

Total number of grid points                  ...    11322
Total number of batches                      ...       95
Average number of points per batch           ...      119
Average number of grid points per atom       ...     1258
UseSFitting                                  ... on

GRIDX 3
-------
General Integration Accuracy     IntAcc      ... 4.338
Radial Grid Type                 RadialGrid  ... OptM3 with GC (2021)
Angular Grid (max. ang.)         AngularGrid ... 3 (Lebedev-194)
Angular grid pruning method      GridPruning ... 4 (adaptive)
Weight generation scheme         WeightScheme... mBecke (2022)
Basis function cutoff            BFCut       ... 1.0000e-10
Integration weight cutoff        WCut        ... 1.0000e-14
Partially contracted basis set               ... on
Rotationally invariant grid construction     ... off
Angular grids for H and He will be reduced by one unit
Diffuse basis detected: some atoms will have their outermost
                        angular grid increased by 1.

Total number of grid points                  ...    24476
Total number of batches                      ...      196
Average number of points per batch           ...      124
Average number of grid points per atom       ...     2720
UseSFitting                                  ... on
Initializing property integral containers    ... done (  0.0 sec)

SHARK setup successfully completed in   0.4 seconds

Maximum memory used throughout the entire STARTUP-calculation: 16.4 MB
-------------------------------------------------------------------------------
                                 ORCA GUESS
                   Start orbitals & Density for SCF / CASSCF
-------------------------------------------------------------------------------

------------
SCF SETTINGS
------------
Hamiltonian:
 Density Functional     Method          .... DFT(GTOs)
 Exchange Functional    Exchange        .... B88
   X-Alpha parameter    XAlpha          ....  0.666667
   Becke's b parameter  XBeta           ....  0.004200
 Correlation Functional Correlation     .... LYP
 LDA part of GGA corr.  LDAOpt          .... VWN-5
 Gradients option       PostSCFGGA      .... off
 Hybrid DFT is turned on
   Fraction HF Exchange ScalHFX         ....  0.200000
   Scaling of DF-GGA-X  ScalDFX         ....  0.720000
   Scaling of DF-GGA-C  ScalDFC         ....  0.810000
   Scaling of DF-LDA-C  ScalLDAC        ....  1.000000
   Perturbative correction              ....  0.000000
   NL short-range parameter             ....  4.800000
 RI-approximation to the Coulomb term is turned on
   Number of AuxJ basis functions       .... 213
   RIJ-COSX (HFX calculated with COS-X)).... on


General Settings:
 Integral files         IntName         .... nmr
 Hartree-Fock type      HFTyp           .... RHF
 Total Charge           Charge          ....    0
 Multiplicity           Mult            ....    1
 Number of Electrons    NEL             ....   26
 Basis Dimension        Dim             ....   84
 Nuclear Repulsion      ENuc            ....     81.3185267795 Eh

Convergence Acceleration:
 AO-DIIS                CNVDIIS         .... on
   Start iteration      DIISMaxIt       ....    12
   Startup error        DIISStart       ....  0.200000
   # of expansion vecs  DIISMaxEq       ....     5
   Bias factor          DIISBfac        ....   1.050
   Max. coefficient     DIISMaxC        ....  10.000
 MO-DIIS                CNVKDIIS        .... off
 Trust-Rad. Augm. Hess. CNVTRAH         .... auto
   Auto Start mean grad. ratio tolernc. ....  1.125000
   Auto Start start iteration           ....    50
   Auto Start num. interpolation iter.  ....    10
   Max. Number of Micro iterations      ....    24
   Max. Number of Macro iterations      .... Maxiter - #DIIS iter
   Number of Davidson start vectors     ....     2
   Converg. threshold    (grad. norm)   ....   5.000e-05
   Grad. Scal. Fac. for Micro threshold ....   0.100
   Minimum threshold for Micro iter.    ....   1.000e-02
   NR start threshold (gradient norm)   ....   1.000e-04
   Initial trust radius                 ....   0.400
   Minimum AH scaling param. (alpha)    ....   1.000
   Maximum AH scaling param. (alpha)    .... 1000.000
   Quad. conv. algorithm                .... NR
   White noise on init. David. guess    .... on
   Maximum white noise                  ....   0.010
   Pseudo random numbers                .... off
   Inactive MOs                         .... canonical
   Orbital update algorithm             .... Taylor
   Preconditioner                       .... Diag
   Full preconditioner red. dimension   ....   250
 SOSCF                  CNVSOSCF        .... on
   Start iteration      SOSCFMaxIt      ....   150
   Startup grad/error   SOSCFStart      ....  0.003300
   Hessian update       SOSCFHessUp     .... L-BFGS
 Level Shifting         CNVShift        .... on
   Level shift para.    LevelShift      ....    0.2500
   Turn off err/grad.   ShiftErr        ....    0.0010
 Zerner damping         CNVZerner       .... off
 Static damping         CNVDamp         .... on
   Fraction old density DampFac         ....    0.7000
   Max. Damping (<1)    DampMax         ....    0.9800
   Min. Damping (>=0)   DampMin         ....    0.0000
   Turn off err/grad.   DampErr         ....    0.1000

SCF Procedure:
 Maximum # iterations   MaxIter         ....   125
 SCF integral mode      SCFMode         .... Direct
   Integral package                     .... SHARK and LIBINT hybrid scheme
 Reset frequency        DirectResetFreq ....    20
 Integral Threshold     Thresh          ....  1.000e-10 Eh
 Primitive CutOff       TCut            ....  1.000e-11 Eh

Convergence Tolerance:
 Convergence Check Mode ConvCheckMode   .... Total+1el-Energy
 Convergence forced     ConvForced      .... 0
 Energy Change          TolE            ....  1.000e-06 Eh
 1-El. energy change                    ....  1.000e-03 Eh
 Orbital Gradient       TolG            ....  5.000e-05
 Orbital Rotation angle TolX            ....  5.000e-05
 DIIS Error             TolErr          ....  1.000e-06

------------------------------
INITIAL GUESS: MODEL POTENTIAL
------------------------------
Loading Hartree-Fock densities                     ... done
Calculating cut-offs                               ... done
Initializing the effective Hamiltonian             ... done
Setting up the integral package (SHARK)            ... done
Starting the Coulomb interaction                   ... done (   0.0 sec)
Making the grid                                    ... done (   0.0 sec)
Mapping shells                                     ... done
Starting the XC term evaluation                    ... done (   0.0 sec)
  promolecular density results
     # of electrons  =     25.997745925
     EX              =    -20.245615109
     EC              =     -0.846069753
     EX+EC           =    -21.091684862
Transforming the Hamiltonian                       ... done (   0.0 sec)
Diagonalizing the Hamiltonian                      ... done (   0.0 sec)
Back transforming the eigenvectors                 ... done (   0.0 sec)
Now organizing SCF variables                       ... done
                      ------------------
                      INITIAL GUESS DONE (   0.1 sec)
                      ------------------
             **** ENERGY FILE WAS UPDATED (nmr.en.tmp) ****
Finished Guess after   0.1 sec
Maximum memory used throughout the entire GUESS-calculation: 8.6 MB

-------------------------------------------------------------------------------------------
                                      ORCA LEAN-SCF
                              memory conserving SCF solver
-------------------------------------------------------------------------------------------

----------------------------------------D-I-I-S--------------------------------------------
Iteration    Energy (Eh)           Delta-E    RMSDP     MaxDP     DIISErr   Damp  Time(sec)
-------------------------------------------------------------------------------------------
               ***  Starting incremental Fock matrix formation  ***
    1    -154.8296792672955462     0.00e+00  4.90e-03  7.40e-02  2.41e-01  0.700   0.8
    2    -154.8917430042892533    -6.21e-02  3.40e-03  4.46e-02  1.03e-01  0.700   0.4
                               ***Turning on AO-DIIS***
    3    -154.9150585982949337    -2.33e-02  1.17e-03  1.63e-02  3.61e-02  0.700   0.4
    4    -154.9290211610157826    -1.40e-02  1.62e-03  1.88e-02  1.60e-02  0.000   0.4
    5    -154.9600567334318271    -3.10e-02  4.06e-04  5.69e-03  6.10e-03  0.000   0.4
                              *** Initializing SOSCF ***
---------------------------------------S-O-S-C-F--------------------------------------
Iteration    Energy (Eh)           Delta-E    RMSDP     MaxDP     MaxGrad    Time(sec)
--------------------------------------------------------------------------------------
    6    -154.9602153915096210    -1.59e-04  1.43e-04  1.76e-03  1.82e-03     0.4
               *** Restarting incremental Fock matrix formation ***
    7    -154.9602435286816444    -2.81e-05  9.30e-05  1.26e-03  1.49e-04     0.8
    8    -154.9602440010872897    -4.72e-07  2.70e-05  4.39e-04  1.96e-04     0.6
                 **** Energy Check signals convergence ****

               *****************************************************
               *                     SUCCESS                       *
               *           SCF CONVERGED AFTER   8 CYCLES          *
               *****************************************************

Recomputing exchange energy using gridx3       ... done (    1.146 sec)
Old exchange energy                            :     -4.140836747 Eh
New exchange energy                            :     -4.140828543 Eh
Exchange energy change after final integration :      0.000008205 Eh
Total energy after final integration           :   -154.960235797 Eh
             **** ENERGY FILE WAS UPDATED (nmr.en.tmp) ****

----------------
TOTAL SCF ENERGY
----------------

Total Energy       :       -154.96023579652223 Eh           -4216.68239 eV

Components:
Nuclear Repulsion  :         81.31852677953482 Eh            2212.78961 eV
Electronic Energy  :       -236.27877078062210 Eh           -6429.47222 eV
One Electron Energy:       -370.63812337166280 Eh          -10085.57608 eV
Two Electron Energy:        134.35935259104070 Eh            3656.10386 eV

Virial components:
Potential Energy   :       -308.88579535107613 Eh           -8405.20980 eV
Kinetic Energy     :        153.92555955455390 Eh            4188.52742 eV
Virial Ratio       :          2.00672192613730

DFT components:
N(Alpha)           :       13.000004130455 electrons
N(Beta)            :       13.000004130455 electrons
N(Total)           :       26.000008260909 electrons
E(X)               :      -16.439183305350 Eh       
E(C)               :       -1.006072467231 Eh       
E(XC)              :      -17.445255772581 Eh       

---------------
SCF CONVERGENCE
---------------

  Last Energy change         ...    4.7241e-07  Tolerance :   1.0000e-06
  Last MAX-Density change    ...    4.3863e-04  Tolerance :   1.0000e-05
  Last RMS-Density change    ...    2.7028e-05  Tolerance :   1.0000e-06
  Last DIIS Error            ...    1.8217e-03  Tolerance :   1.0000e-06
  Last Orbital Gradient      ...    1.9615e-04  Tolerance :   5.0000e-05
  Last Orbital Rotation      ...    1.1936e-04  Tolerance :   5.0000e-05


----------------
ORBITAL ENERGIES
----------------

  NO   OCC          E(Eh)            E(eV) 
   0   2.0000     -19.149469      -521.0836 
   1   2.0000     -10.230191      -278.3776 
   2   2.0000     -10.177145      -276.9342 
   3   2.0000      -1.020020       -27.7562 
   4   2.0000      -0.748794       -20.3757 
   5   2.0000      -0.626513       -17.0483 
   6   2.0000      -0.503494       -13.7008 
   7   2.0000      -0.453968       -12.3531 
   8   2.0000      -0.432342       -11.7646 
   9   2.0000      -0.383555       -10.4371 
  10   2.0000      -0.372958       -10.1487 
  11   2.0000      -0.328316        -8.9339 
  12   2.0000      -0.276442        -7.5224 
  13   0.0000       0.007549         0.2054 
  14   0.0000       0.030086         0.8187 
  15   0.0000       0.034456         0.9376 
  16   0.0000       0.049651         1.3511 
  17   0.0000       0.074051         2.0150 
  18   0.0000       0.081081         2.2063 
  19   0.0000       0.087501         2.3810 
  20   0.0000       0.135357         3.6833 
  21   0.0000       0.144381         3.9288 
  22   0.0000       0.174598         4.7511 
  23   0.0000       0.183475         4.9926 
*Only the first 10 virtual orbitals were printed.

                    ********************************
                    * MULLIKEN POPULATION ANALYSIS *
                    ********************************

-----------------------
MULLIKEN ATOMIC CHARGES
-----------------------
   0 C :   -0.482299
   1 C :   -0.030028
   2 O :   -0.523547
   3 H :    0.135721
   4 H :    0.162618
   5 H :    0.144561
   6 H :    0.138546
   7 H :    0.121086
   8 H :    0.333344
Sum of atomic charges:   -0.0000000

--------------------------------
MULLIKEN REDUCED ORBITAL CHARGES
--------------------------------
  0 C s       :     3.339333  s :     3.339333
      pz      :     1.072028  p :     3.112216
      px      :     0.977993
      py      :     1.062195
      dz2     :     0.009866  d :     0.030750
      dxz     :     0.005004
      dyz     :     0.002380
      dx2y2   :     0.007094
      dxy     :     0.006405

  1 C s       :     3.233562  s :     3.233562
      pz      :     0.965254  p :     2.732502
      px      :     0.772544
      py      :     0.994704
      dz2     :     0.017942  d :     0.063965
      dxz     :     0.011864
      dyz     :     0.005064
      dx2y2   :     0.016343
      dxy     :     0.012752

  2 O s       :     3.821828  s :     3.821828
      pz      :     1.808224  p :     4.679778
      px      :     1.591862
      py      :     1.279691
      dz2     :     0.003406  d :     0.021941
      dxz     :     0.004692
      dyz     :     0.002484
      dx2y2   :     0.007441
      dxy     :     0.003919

  3 H s       :     0.853044  s :     0.853044
      pz      :     0.002453  p :     0.011235
      px      :     0.002584
      py      :     0.006197

  4 H s       :     0.826257  s :     0.826257
      pz      :     0.006609  p :     0.011125
      px      :     0.002169
      py      :     0.002347

  5 H s       :     0.844200  s :     0.844200
      pz      :     0.002959  p :     0.011239
      px      :     0.004661
      py      :     0.003619

  6 H s       :     0.851012  s :     0.851012
      pz      :     0.002249  p :     0.010442
      px      :     0.001805
      py      :     0.006389

  7 H s       :     0.868420  s :     0.868420
      pz      :     0.006697  p :     0.010495
      px      :     0.001836
      py      :     0.001962

  8 H s       :     0.627018  s :     0.627018
      pz      :     0.010657  p :     0.039638
      px      :     0.008774
      py      :     0.020207



                     *******************************
                     * LOEWDIN POPULATION ANALYSIS *
                     *******************************

----------------------
LOEWDIN ATOMIC CHARGES
----------------------
   0 C :   -0.355868
   1 C :   -0.078225
   2 O :   -0.458029
   3 H :    0.126297
   4 H :    0.136097
   5 H :    0.132161
   6 H :    0.137070
   7 H :    0.121031
   8 H :    0.239466

-------------------------------
LOEWDIN REDUCED ORBITAL CHARGES
-------------------------------
  0 C s       :     2.968538  s :     2.968538
      pz      :     1.125996  p :     3.324993
      px      :     1.080249
      py      :     1.118748
      dz2     :     0.018811  d :     0.062337
      dxz     :     0.010970
      dyz     :     0.004378
      dx2y2   :     0.015212
      dxy     :     0.012965

  1 C s       :     2.903325  s :     2.903325
      pz      :     1.051209  p :     3.041681
      px      :     0.952277
      py      :     1.038195
      dz2     :     0.035844  d :     0.133219
      dxz     :     0.026312
      dyz     :     0.009642
      dx2y2   :     0.035257
      dxy     :     0.026164

  2 O s       :     3.553000  s :     3.553000
      pz      :     1.829543  p :     4.860180
      px      :     1.665948
      py      :     1.364689
      dz2     :     0.006836  d :     0.044849
      dxz     :     0.008046
      dyz     :     0.004733
      dx2y2   :     0.016500
      dxy     :     0.008734

  3 H s       :     0.835008  s :     0.835008
      pz      :     0.007263  p :     0.038695
      px      :     0.007416
      py      :     0.024016

  4 H s       :     0.824436  s :     0.824436
      pz      :     0.026272  p :     0.039467
      px      :     0.006312
      py      :     0.006884

  5 H s       :     0.828569  s :     0.828569
      pz      :     0.009734  p :     0.039270
      px      :     0.017198
      py      :     0.012338

  6 H s       :     0.825276  s :     0.825276
      pz      :     0.006699  p :     0.037654
      px      :     0.005875
      py      :     0.025079

  7 H s       :     0.840964  s :     0.840964
      pz      :     0.026484  p :     0.038004
      px      :     0.005201
      py      :     0.006319

  8 H s       :     0.643067  s :     0.643067
      pz      :     0.029002  p :     0.117466
      px      :     0.023928
      py      :     0.064536



                      *****************************
                      * MAYER POPULATION ANALYSIS *
                      *****************************

  NA   - Mulliken gross atomic population
  ZA   - Total nuclear charge
  QA   - Mulliken gross atomic charge
  VA   - Mayer's total valence
  BVA  - Mayer's bonded valence
  FA   - Mayer's free valence

  ATOM       NA         ZA         QA         VA         BVA        FA
  0 C      6.4823     6.0000    -0.4823     3.8300     3.8300    -0.0000
  1 C      6.0300     6.0000    -0.0300     3.6984     3.6984    -0.0000
  2 O      8.5235     8.0000    -0.5235     1.6691     1.6691     0.0000
  3 H      0.8643     1.0000     0.1357     0.9483     0.9483     0.0000
  4 H      0.8374     1.0000     0.1626     0.9409     0.9409    -0.0000
  5 H      0.8554     1.0000     0.1446     0.9480     0.9480     0.0000
  6 H      0.8615     1.0000     0.1385     0.9429     0.9429     0.0000
  7 H      0.8789     1.0000     0.1211     0.9362     0.9362    -0.0000
  8 H      0.6667     1.0000     0.3333     0.8733     0.8733     0.0000

  Mayer bond orders larger than 0.100000
B(  0-C ,  1-C ) :   0.9377 B(  0-C ,  3-H ) :   0.9710 B(  0-C ,  4-H ) :   0.9676 
B(  0-C ,  5-H ) :   0.9597 B(  1-C ,  2-O ) :   0.8257 B(  1-C ,  6-H ) :   0.9864 
B(  1-C ,  7-H ) :   0.9625 B(  2-O ,  8-H ) :   0.8454 

-------
TIMINGS
-------

Total SCF time: 0 days 0 hours 0 min 5 sec 

Total time                  ....       5.526 sec
Sum of individual times     ....       5.520 sec  ( 99.9%)

SCF preparation             ....       0.038 sec  (  0.7%)
Fock matrix formation       ....       5.449 sec  ( 98.6%)
  Startup                   ....       0.001 sec  (  0.0% of F)
  Split-RI-J                ....       0.254 sec  (  4.7% of F)
  Chain of spheres X        ....       3.930 sec  ( 72.1% of F)
  XC integration            ....       1.254 sec  ( 23.0% of F)
    Basis function eval.    ....       0.530 sec  ( 42.3% of XC)
    Density eval.           ....       0.203 sec  ( 16.2% of XC)
    XC-Functional eval.     ....       0.083 sec  (  6.6% of XC)
    XC-Potential eval.      ....       0.342 sec  ( 27.3% of XC)
Diagonalization             ....       0.000 sec  (  0.0%)
Density matrix formation    ....       0.004 sec  (  0.1%)
Total Energy calculation    ....       0.002 sec  (  0.0%)
Population analysis         ....       0.003 sec  (  0.0%)
Orbital Transformation      ....       0.003 sec  (  0.0%)
Orbital Orthonormalization  ....       0.000 sec  (  0.0%)
DIIS solution               ....       0.013 sec  (  0.2%)
SOSCF solution              ....       0.008 sec  (  0.1%)
Finished LeanSCF after   5.5 sec

Maximum memory used throughout the entire LEANSCF-calculation: 9.4 MB

------------------------------------------------------------------------------
                         ORCA PROPERTY INTEGRAL CALCULATIONS
------------------------------------------------------------------------------

GBWName                                   ... nmr.gbw
Number of atoms                           ...      9
Number of basis functions                 ...     84
Max core memory                           ...   1024 MB

Dipole integrals                          ... YES
Quadrupole integrals                      ...  NO
Linear momentum integrals                 ...  NO
Angular momentum integrals                ...  NO
Higher moments length integrals           ...  NO
Higher moments velocity integrals         ...  NO
Kinetic energy integrals                  ...  NO
GIAO right hand sides                     ... YES
GIAO dipole derivative integrals          ...  NO
SOC integrals                             ...  NO
EPR diamagnetic integrals (GIAO)          ...  NO
EPR gauge integrals                       ...  NO
Field gradient integrals                  ...  NO (   0 nuclei)
Spin-dipole/Fermi contact integrals       ...  NO (   0 nuclei)
Contact density integrals                 ...  NO (   0 nuclei)
Nucleus-orbit integrals                   ...  NO (   0 nuclei)
Geometric perturbations                   ...  NO (   9 nuclei)

Choice of electric origin   ... Center of mass
Position of electric origin ... (  0.7649, -0.0590, -0.1368) 
Choice of magnetic origin   ... GIAO
Position of magnetic origin ... (  0.0000,  0.0000,  0.0000) 

Calculating integrals                     ... Electric Dipole (Length)     done (  0.0 sec)

Calculating integrals                     ... GIAO Right Hand Sides
     -> RIJCOSX used in SCF. Same chosen for GIAO calculation.
  One-electron GIAO integrals (SHARK)     ... done (  0.0 sec)
  Calculating G(B)[P]                     ... (RI-J: SHARK-ok) (COSX-ok) (add-J+K:ok) => dG/dB done (  0.9 sec)
  DFT XC-terms                            ... done (  2.1 sec)
  Extracting occupied and virtual blocks  ... 
  Operator  0  NO=  13 NV=  71 
  Transforming and RHS contribution       ... done
  Adding eps_i * S(B)_ai terms            ... done
  Projecting overlap derivatives          ... done (  0.0 sec)
  Building G[dS/dB_ij] (COSX)             ... done (  0.2 sec)
  Transforming to MO basis                ... done
  Summing G[dS/dB_ij] into RHS contribs.  ... done
  GIAO Right hand sides done (  3.2 sec)


Property integrals calculated in   3.2 sec

Maximum memory used throughout the entire PROPINT-calculation: 12.5 MB

-------------------------   --------------------
FINAL SINGLE POINT ENERGY      -154.960235796522
-------------------------   --------------------

------------------------------------------------------------------------------
                            ORCA SCF RESPONSE CALCULATION
------------------------------------------------------------------------------

GBWName                                 ... nmr.gbw
Number of atoms                         ...      9
Number of basis functions               ...     84
Max core memory                         ...   1024 MB

Electric field perturbation             ...  NO
Quadrupolar field perturbation          ...  NO
Magnetic field perturbation (no GIAO)   ...  NO
Magnetic field perturbation (with GIAO) ... YES
Linear momentum (velocity) perturbation ...  NO
Spin-orbit coupling perturbation        ...  NO
Choice of electric origin               ... Center of mass
Position of electric origin             ...     0.764874    -0.059031    -0.136792
Choice of magnetic origin               ... GIAO
Position of magnetic origin             ...     0.000000     0.000000     0.000000
Nuclear geometric perturbations         ...  NO (  27 perturbations)
Nucleus-orbit perturbations             ...  NO (   0 perturbations)
Spin-dipole/Fermi contact perturbations ...  NO (   0 perturbations)

Total number of real perturbations      ...      0
Total number of imaginary perturbations ...      3
Total number of triplet perturbations   ...      0
Total number of SOC perturbations       ...      0


                              ***************************
                              * IMAGINARY PERTURBATIONS *
                              ***************************



-------------------
SHARK CP-SCF DRIVER
-------------------

Dimension of the orbital basis          ...     84
Dimension of the CPSCF-problem          ...    923
Number of operators                     ...      1
Max. number of iterations               ...    128
Convergence Tolerance                   ... 1.0e-03
Number of perturbations                 ...      3
Perturbation type                       ... IMAGINARY

----------------------------
POPLE LINEAR EQUATION SOLVER
----------------------------

  ITERATION   0:   ||err||_max =   1.6918e-01 (   0.2 sec   0/  3 done)
  ITERATION   1:   ||err||_max =   3.7245e-03 (   0.2 sec   0/  3 done)
  ITERATION   2:   ||err||_max =   2.3930e-04 (   0.2 sec   3/  3 done)

CP-SCF equations solved in   0.5 sec
Response densities calculated in   0.0 sec

Maximum memory used throughout the entire SCFRESP-calculation: 8.5 MB

------------------------------------------------------------------------------
                              ORCA PROPERTY CALCULATIONS
------------------------------------------------------------------------------

GBWName                                 ... nmr.gbw
Number of atoms                         ...      9
Number of basis functions               ...     84
Max core memory                         ...   1024 MB

Electric properties:
Dipole moment                           ... YES
Quadrupole moment                       ...  NO
Static polarizability (Dipole/Dipole)   ...  NO
Static polarizability (Dipole/Quad.)    ...  NO
Static polarizability (Quad./Quad.)     ...  NO
Static polarizability (Velocity)        ...  NO

Atomic electric properties:
Dipole moment                           ...  NO
Quadrupole moment                       ...  NO
Static polarizability                   ...  NO

Choice of electric origin               ... Center of mass
Position of electric origin             ...     0.764874    -0.059031    -0.136792

General magnetic properties:
Magnetizability                         ...  NO

EPR properties:
g-Tensor (aka g-matrix)                 ...  NO
Zero-Field splitting spin-orbit         ...  NO
Zero-field splitting spin-spin          ...  NO
Hyperfine couplings                     ...  NO (   0 nuclei)
Quadrupole couplings                    ...  NO (   0 nuclei)
Contact density                         ...  NO (   0 nuclei)

NMR properties:
Chemical shifts                         ... YES (   9 nuclei)
Spin-rotation constants                 ...  NO (   0 nuclei)
Spin-spin couplings                     ...  NO (   0 nuclei,    0 pairs)

Choice of magnetic origin               ... GIAO
Position of magnetic origin             ...     0.000000     0.000000     0.000000

Properties with geometric perturbations:
SCF Hessian                             ...  NO
IR spectrum                             ...  NO
VCD spectrum                            ...  NO
X-ray spectroscopy properties:
SCF XES/XAS/RIXS spectra                ...  NO


-------------
DIPOLE MOMENT
-------------

Method             : SCF
Type of density    : Electron Density
Multiplicity       :   1
Irrep              :   0
Energy             :  -154.9602357965222268 Eh
Relativity type    : 
Basis              : AO
                                X                 Y                 Z
Electronic contribution:      2.713495342      -0.441506529      -0.255771399
Nuclear contribution   :     -3.323359794       0.174293565       0.597840302
                        -----------------------------------------
Total Dipole Moment    :     -0.609864452      -0.267212964       0.342068903
                        -----------------------------------------
Magnitude (a.u.)       :      0.748564327
Magnitude (Debye)      :      1.902699309



--------------------
Rotational spectrum 
--------------------
 
Rotational constants in cm-1:             1.142605             0.303579             0.268281 
Rotational constants in MHz :         34254.442407          9101.058171          8042.855537 

Dipole components along the rotational axes: 
x,y,z [a.u.] :    -0.559543    -0.037099     0.495866 
x,y,z [Debye]:    -1.422246    -0.094297     1.260392 

 

Dipole moment calculation done in   0.0 sec 
GIAO: Analytic para- and diamagnetic shielding integrals (SHARK)       ... done (  0.1 sec)
-------------------
CHEMICAL SHIELDINGS (ppm)
-------------------

Method             : SCF
Type of density    : Electron Density
Type of derivative : Magnetic Field (with GIAOs) (Direction=X)
Multiplicity       :   1
Irrep              :   0
Relativity type    : 
Basis              : AO
 --------------
 Nucleus   0C :
 --------------

Diamagnetic contribution to the shielding tensor (ppm) : 
           253.322          2.394         4.364
             3.560        242.196         1.087
             4.913          1.224       243.794

Paramagnetic contribution to the shielding tensor (ppm): 
           -63.449         -5.170         1.265
             1.595        -79.425         8.353
             6.163          7.106       -80.738

Total shielding tensor (ppm): 
           189.874         -2.775         5.629
             5.155        162.771         9.440
            11.076          8.330       163.056


 Diagonalized sT*s matrix:
 
 sDSO           241.751          241.880          255.681  iso=     246.437
 sPSO           -88.460          -72.191          -62.960  iso=     -74.537
        ---------------  ---------------  ---------------
 Total          153.291          169.689          192.720  iso=     171.900

 Orientation: 
  X           0.1471320    0.2833014   -0.9476774
  Y           0.6658981   -0.7368294   -0.1168856
  Z          -0.7313904   -0.6138590   -0.2970611

 --------------
 Nucleus   1C :
 --------------

Diamagnetic contribution to the shielding tensor (ppm) : 
           247.418         -1.965        -0.155
            -3.515        233.148         6.227
             2.173          5.896       235.650

Paramagnetic contribution to the shielding tensor (ppm): 
           -99.958        -23.269       -14.794
           -19.844       -107.674        14.937
           -14.034         15.035      -114.535

Total shielding tensor (ppm): 
           147.460        -25.234       -14.949
           -23.359        125.473        21.164
           -11.861         20.931       121.114


 Diagonalized sT*s matrix:
 
 sDSO           227.922          242.878          245.416  iso=     238.738
 sPSO          -127.121         -122.946          -72.101  iso=    -107.389
        ---------------  ---------------  ---------------
 Total          100.801          119.932          173.315  iso=     131.349

 Orientation: 
  X          -0.2035342    0.6584558   -0.7245756
  Y          -0.7435997    0.3774582    0.5518921
  Z           0.6368935    0.6511231    0.4128018

 --------------
 Nucleus   2O :
 --------------

Diamagnetic contribution to the shielding tensor (ppm) : 
           385.836         -6.940       -10.792
           -10.222        392.736         2.259
           -11.375          2.136       365.467

Paramagnetic contribution to the shielding tensor (ppm): 
           -97.647         20.598        12.920
            -1.447        -82.996         6.158
             5.670         -2.822      -114.229

Total shielding tensor (ppm): 
           288.189         13.658         2.128
           -11.669        309.740         8.417
            -5.704         -0.686       251.238


 Diagonalized sT*s matrix:
 
 sDSO           364.372          387.128          392.540  iso=     381.346
 sPSO          -113.475          -98.873          -82.524  iso=     -98.291
        ---------------  ---------------  ---------------
 Total          250.897          288.255          310.016  iso=     283.056

 Orientation: 
  X           0.0463527   -0.9987320   -0.0196400
  Y          -0.0744742    0.0161513   -0.9970921
  Z           0.9961451    0.0476806   -0.0736311

 --------------
 Nucleus   3H :
 --------------

Diamagnetic contribution to the shielding tensor (ppm) : 
            28.241          4.520         0.533
             4.346         35.861        -1.380
             0.377         -1.283        25.729

Paramagnetic contribution to the shielding tensor (ppm): 
             2.176         -1.194        -0.296
            -1.993         -2.255        -0.019
            -0.509          0.810         2.438

Total shielding tensor (ppm): 
            30.417          3.326         0.237
             2.353         33.607        -1.399
            -0.132         -0.473        28.168


 Diagonalized sT*s matrix:
 
 sDSO            25.027           26.933           37.872  iso=      29.944
 sPSO             2.777            2.101           -2.518  iso=       0.786
        ---------------  ---------------  ---------------
 Total           27.804           29.034           35.353  iso=      30.730

 Orientation: 
  X          -0.3710226   -0.7898944   -0.4882715
  Y           0.3231047    0.3831398   -0.8653365
  Z           0.8706007   -0.4788222    0.1130651

 --------------
 Nucleus   4H :
 --------------

Diamagnetic contribution to the shielding tensor (ppm) : 
            26.365          0.171         2.706
             0.079         23.499        -1.546
             1.905         -1.465        38.149

Paramagnetic contribution to the shielding tensor (ppm): 
             2.398          0.079         0.014
            -0.246          4.069         0.655
            -0.593         -0.066        -3.828

Total shielding tensor (ppm): 
            28.763          0.251         2.719
            -0.167         27.568        -0.892
             1.312         -1.531        34.321


 Diagonalized sT*s matrix:
 
 sDSO            23.625           25.874           38.514  iso=      29.337
 sPSO             3.585            2.422           -3.368  iso=       0.880
        ---------------  ---------------  ---------------
 Total           27.210           28.295           35.145  iso=      30.217

 Orientation: 
  X          -0.3598600   -0.8878728    0.2866752
  Y           0.8978600   -0.4130908   -0.1523264
  Z           0.2536693    0.2025780    0.9458404

 --------------
 Nucleus   5H :
 --------------

Diamagnetic contribution to the shielding tensor (ppm) : 
            34.590         -5.759        -3.452
            -5.115         27.128         3.067
            -2.901          3.108        25.885

Paramagnetic contribution to the shielding tensor (ppm): 
             0.080          2.286         1.472
             2.295          1.968        -1.766
             1.388         -1.819         1.982

Total shielding tensor (ppm): 
            34.670         -3.473        -1.980
            -2.820         29.096         1.301
            -1.513          1.289        27.867


 Diagonalized sT*s matrix:
 
 sDSO            23.321           25.567           38.716  iso=      29.201
 sPSO             3.714            2.428           -2.112  iso=       1.343
        ---------------  ---------------  ---------------
 Total           27.035           27.995           36.604  iso=      30.544

 Orientation: 
  X          -0.0650620    0.4744635   -0.8778675
  Y          -0.5997941    0.6844857    0.4143988
  Z           0.7975049    0.5535014    0.2400463

 --------------
 Nucleus   6H :
 --------------

Diamagnetic contribution to the shielding tensor (ppm) : 
            25.644          2.421        -0.278
             1.482         37.122        -1.192
             0.546          0.076        22.934

Paramagnetic contribution to the shielding tensor (ppm): 
             2.440         -3.342         0.346
            -0.453         -5.274         2.166
            -0.707          2.259         1.051

Total shielding tensor (ppm): 
            28.084         -0.921         0.068
             1.028         31.847         0.974
            -0.161          2.335        23.984


 Diagonalized sT*s matrix:
 
 sDSO            23.622           25.556           36.522  iso=      28.566
 sPSO             0.029            2.530           -4.342  iso=      -0.594
        ---------------  ---------------  ---------------
 Total           23.651           28.085           32.180  iso=      27.972

 Orientation: 
  X           0.0093124   -0.9996407   -0.0251330
  Y          -0.1855444    0.0229702   -0.9823674
  Z           0.9825918    0.0138115   -0.1852638

 --------------
 Nucleus   7H :
 --------------

Diamagnetic contribution to the shielding tensor (ppm) : 
            25.123         -0.572         0.157
            -0.304         22.477         0.804
             0.886         -0.186        38.289

Paramagnetic contribution to the shielding tensor (ppm): 
             2.680         -1.004        -1.441
            -1.056          1.422         2.168
            -0.431          1.593        -6.681

Total shielding tensor (ppm): 
            27.803         -1.576        -1.285
            -1.361         23.899         2.972
             0.455          1.406        31.608


 Diagonalized sT*s matrix:
 
 sDSO            22.992           26.022           36.876  iso=      28.630
 sPSO            -0.031            2.004           -4.553  iso=      -0.860
        ---------------  ---------------  ---------------
 Total           22.960           28.026           32.323  iso=      27.770

 Orientation: 
  X           0.2651341    0.9504309   -0.1624349
  Y           0.9399160   -0.2171805    0.2634207
  Z          -0.2150855    0.2225170    0.9509072

 --------------
 Nucleus   8H :
 --------------

Diamagnetic contribution to the shielding tensor (ppm) : 
            23.773         -0.604        -1.752
             0.320         41.981        -1.569
            -1.235         -1.871        21.805

Paramagnetic contribution to the shielding tensor (ppm): 
             4.826         -1.349        -0.514
            -1.747         -0.552        -0.316
            -0.241          1.022         3.177

Total shielding tensor (ppm): 
            28.599         -1.953        -2.266
            -1.427         41.430        -1.885
            -1.476         -0.849        24.982


 Diagonalized sT*s matrix:
 
 sDSO            20.923           24.746           41.891  iso=      29.187
 sPSO             3.053            4.566           -0.168  iso=       2.484
        ---------------  ---------------  ---------------
 Total           23.976           29.312           41.724  iso=      31.670

 Orientation: 
  X           0.4149660    0.9025989   -0.1145355
  Y           0.1158970    0.0724215    0.9906175
  Z           0.9024251   -0.4243469   -0.0745560



--------------------------------
CHEMICAL SHIELDING SUMMARY (ppm)
--------------------------------


  Nucleus  Element    Isotropic     Anisotropy
  -------  -------  ------------   ------------
      0       C          171.900         31.230 
      1       C          131.349         62.948 
      2       O          283.056         40.440 
      3       H           30.730          6.935 
      4       H           30.217          7.393 
      5       H           30.544          9.089 
      6       H           27.972          6.311 
      7       H           27.770          6.830 
      8       H           31.670         15.080 


NMR shielding tensor and spin rotation calculation done in   0.1 sec 

Maximum memory used throughout the entire PROP-calculation: 7.2 MB

--------------------------------
SUGGESTED CITATIONS FOR THIS RUN
--------------------------------

Below you find a list of papers that are relevant to this ORCA run
We neither can nor want to force you to cite these papers, but we appreciate if you do
You receive ORCA, which is the product of decades of hard work by many enthusiastic individuals, for free
The only thing we kindly ask in return is that you cite our papers,
We deeply appreciate it, if you show your appreciation for ORCA by not just citing the generic ORCA reference.

Please note that relegating all ORCA citations to the supporting information does *not* help us.
SI sections are not indexed - citations you put there will not count into any citation statistics
But we need these citations in order to attract the funding resources that allow us to do what we are doing

Therefore, if you are a happy ORCA user, please consider citing a few of the papers listed below in the main body of your paper

In addition to the list printed below, the program has created the file nmr.bibtex that contains the list in bibtex format
You can import this file easily into all common literature databanks and citation aid programs


List of essential papers. We consider these as the minimum necessary citations

  1. Neese,F.
     Software update: the ORCA program system, version 5.0
     WIRES Comput. Molec. Sci., 2022 12(1)e1606
     doi.org/10.1002/wcms.1606

List of papers to cite with high priority. The work reported in these papers was absolutely
necessary for this run to complete.
Our perspective: the developers of density functionals and basis sets usually get cited in chemistry papers
Good! But without the algorithms to do something with them, the functionals or basis sets would not do anything.
Hence, in our opinion, the algorithm design and method developments papers are equally worthy of getting cited

  1. Neese,F.
     An improvement of the resolution of the identity approximation for the formation of the Coulomb matrix
     J. Comp. Chem., 2003 24(14)1740-1747
     doi.org/10.1002/jcc.10318
  2. Neese,F.; Wennmohs,F.; Hansen,A.; Becker,U.
     Efficient, approximate and parallel Hartree-Fock and hybrid DFT calculations. A 'chain-of-spheres' algorithm for the Hartree-Fock exchange
     Chem. Phys., 2009 356(1-3)98-109
     doi.org/10.1016/j.chemphys.2008.10.036
  3. Stoychev,G.L.; Auer,A.A.; Izsak,R.; Neese,F.
     Self-Consistent Field Calculation of Nuclear Magnetic Resonance Chemical Shielding Constants Using Gauge-Including Atomic Orbitals and Approximate Two-Electron Integrals
     J. Chem. Theory Comput., 2018 14(2)619-637
     doi.org/10.1021/acs.jctc.7b01006
  4. Helmich-Paris,B.; de Souza,B.; Neese,F.; Izsák,R.
     An improved chain of spheres for exchange algorithm
     J. Chem. Phys., 2021 155 104109
     doi.org/doi: 10.1063/5.0058766.
  5. Neese,F.
     The SHARK Integral Generation and Digestion System
     J. Comp. Chem., 2022  1-16
     doi.org/10.1002/jcc.26942

List of suggested additional citations. These are papers that are important in the 'surrounding' of 
of this run, or papers that preceded the highly important papers. If you like your results we are grateful for a citation.

  1. Izsak,R.; Neese,F.
     An overlap fitted chain of spheres exchange method
     J. Chem. Phys., 2011 135 144105
     doi.org/10.1063/1.3646921
  2. Izsak,R.; Hansen,A.; Neese,F.
     The resolution of identity and chain of spheres approximations for the LPNO-CCSD singles Fock term
     Molec. Phys., 2012 110 2413-2417
     doi.org/10.1080/00268976.2012.687466
  3. Neese,F.
     The ORCA program system
     WIRES Comput. Molec. Sci., 2012 2(1)73-78
     doi.org/10.1002/wcms.81
  4. Izsak,R.; Neese,F.; Klopper,W.
     Robust fitting techniques in the chain of spheres approximation to the Fock exchange: The role of the complementary space
     J. Chem. Phys., 2013 139 
     doi.org/10.1063/1.4819264
  5. Neese,F.
     Software update: the ORCA program system, version 4.0
     WIRES Comput. Molec. Sci., 2018 8(1)1-6
     doi.org/10.1002/wcms.1327
  6. Neese,F.; Wennmohs,F.; Becker,U.; Riplinger,C.
     The ORCA quantum chemistry program package
     J. Chem. Phys., 2020 152 Art. No. L224108
     doi.org/10.1063/5.0004608

List of optional additional citations

  1. Neese,F.
     Approximate second-order SCF convergence for spin unrestricted wavefunctions
     Chem. Phys. Lett., 2000 325(1-3)93-98
     doi.org/10.1016/s0009-2614(00)00662-x

Timings for individual modules:

Sum of individual times          ...       10.536 sec (=   0.176 min)
Startup calculation              ...        0.535 sec (=   0.009 min)   5.1 %
SCF iterations                   ...        5.838 sec (=   0.097 min)  55.4 %
Property integrals               ...        3.297 sec (=   0.055 min)  31.3 %
SCF Response                     ...        0.700 sec (=   0.012 min)   6.6 %
Property calculations            ...        0.166 sec (=   0.003 min)   1.6 %
                             ****ORCA TERMINATED NORMALLY****
TOTAL RUN TIME: 0 days 0 hours 0 minutes 10 seconds 677 msec
