
                                 *****************
                                 * O   R   C   A *
                                 *****************

                                            #,                                       
                                            ###                                      
                                            ####                                     
                                            #####                                    
                                            ######                                   
                                           ########,                                 
                                     ,,################,,,,,                         
                               ,,#################################,,                 
                          ,,##########################################,,             
                       ,#########################################, ''#####,          
                    ,#############################################,,   '####,        
                  ,##################################################,,,,####,       
                ,###########''''           ''''###############################       
              ,#####''   ,,,,##########,,,,          '''####'''          '####       
            ,##' ,,,,###########################,,,                        '##       
           ' ,,###''''                  '''############,,,                           
         ,,##''                                '''############,,,,        ,,,,,,###''
      ,#''                                            '''#######################'''  
     '                                                          ''''####''''         
             ,#######,   #######,   ,#######,      ##                                
            ,#'     '#,  ##    ##  ,#'     '#,    #''#        ,####,   ,####,        
            ##       ##  ##   ,#'  ##            #'  '#       #'       #'  '#        
            ##       ##  #######   ##           ,######,      #####,   #    #        
            '#,     ,#'  ##    ##  '#,     ,#' ,#      #,     #,   #   #,  ,#        
             '#######'   ##     ##  '#######'  #'      '#     '####' # '####'        



                #########################################################
                #                        -***-                          #
                #          Department of theory and spectroscopy        #
                #                                                       #
                #                      Frank Neese                      #
                #                                                       #
                #     Directorship, Architecture, Infrastructure        #
                #                    SHARK, DRIVERS                     #
                #        Core code/Algorithms in most modules           #
                #                                                       #
                #        Max Planck Institute fuer Kohlenforschung      #
                #                Kaiser Wilhelm Platz 1                 #
                #                 D-45470 Muelheim/Ruhr                 #
                #                      Germany                          #
                #                                                       #
                #                  All rights reserved                  #
                #                        -***-                          #
                #########################################################


                         Program Version 6.0.0  -   RELEASE  -


 With contributions from (in alphabetic order):
   Daniel Aravena         : Magnetic Suceptibility
   Michael Atanasov       : Ab Initio Ligand Field Theory (pilot matlab implementation)
   Alexander A. Auer      : GIAO ZORA, VPT2 properties, NMR spectrum
   Ute Becker             : All parallelization in ORCA, NUMFREQ, NUMCALC
   Giovanni Bistoni       : ED, misc. LED, open-shell LED, HFLD
   Martin Brehm           : Molecular dynamics
   Dmytro Bykov           : pre 5.0 version of the SCF Hessian
   Marcos Casanova-Páez   : Triplet and SCS-CIS(D). UHF-(DLPNO)-IP/EA/STEOM-CCSD. UHF-CVS-IP/STEOM-CCSD
   Vijay G. Chilkuri      : MRCI spin determinant printing, contributions to CSF-ICE
   Pauline Colinet        : FMM embedding
   Dipayan Datta          : RHF DLPNO-CCSD density
   Achintya Kumar Dutta   : EOM-CC, STEOM-CC
   Nicolas Foglia         : Exact transition moments, OPA infrastructure, MCD improvements
   Dmitry Ganyushin       : Spin-Orbit,Spin-Spin,Magnetic field MRCI
   Miquel Garcia          : C-PCM and meta-GGA Hessian, CCSD/C-PCM, Gaussian charge scheme
   Tiago L. C. Gouveia    : GS-ROHF, GS-ROCIS
   Yang Guo               : DLPNO-NEVPT2, F12-NEVPT2, CIM, IAO-localization
   Andreas Hansen         : Spin unrestricted coupled pair/coupled cluster methods
   Ingolf Harden          : AUTO-CI MPn and infrastructure 
   Benjamin Helmich-Paris : MC-RPA, TRAH-(SCF,CASSCF), AVAS, COSX integrals, SCF dyn. polar.
   Lee Huntington         : MR-EOM, pCC
   Robert Izsak           : Overlap fitted RIJCOSX, COSX-SCS-MP3, EOM
   Riya Kayal             : Wick's Theorem for AUTO-CI, AUTO-CI UHF-CCSDT
   Emily Kempfer          : AUTO-CI, RHF CISDT and CCSDT
   Christian Kollmar      : KDIIS, OOCD, Brueckner-CCSD(T), CCSD density, CASPT2, CASPT2-K, improved NEVPT2
   Axel Koslowski         : Symmetry handling
   Simone Kossmann        : Meta GGA functionals, TD-DFT gradient, OOMP2, (MP2 Hessian; deprecated post 5.0)
   Lucas Lang             : DCDCAS
   Marvin Lechner         : AUTO-CI (C++ implementation), FIC-MRCC
   Spencer Leger          : CASSCF response
   Dagmar Lenk            : GEPOL surface, SMD, ORCA-2-JSON
   Dimitrios Liakos       : Extrapolation schemes; Compound Job, initial MDCI parallelization
   Dimitrios Manganas     : Further ROCIS development; embedding schemes. LFT, Crystal Embedding
   Dimitrios Pantazis     : SARC Basis sets
   Anastasios Papadopoulos: AUTO-CI, single reference methods and gradients
   Taras Petrenko         : pre 6.0 DFT Hessian and TD-DFT gradient, (ASA, deprecated), ECA, 1-Electron XAS/XES, NRVS
   Peter Pinski           : DLPNO-MP2, DLPNO-MP2 Gradient
   Christoph Reimann      : Effective Core Potentials
   Marius Retegan         : Local ZFS, SOC
   Christoph Riplinger    : Optimizer, TS searches, QM/MM, DLPNO-CCSD(T), (RO)-DLPNO pert. Triples
   Michael Roemelt        : Original ROCIS implementation
   Masaaki Saitow         : Open-shell DLPNO-CCSD energy and density
   Barbara Sandhoefer     : DKH picture change effects
   Kantharuban Sivalingam : CASSCF convergence/infrastructure, NEVPT2 and variants, FIC-MRCI
   Bernardo de Souza      : ESD, SOC TD-DFT
   Georgi Stoychev        : AutoAux, RI-MP2 NMR, DLPNO-MP2 response, X2C
   Van Anh Tran           : RI-MP2 g-tensors
   Willem Van den Heuvel  : Paramagnetic NMR
   Zikuan Wang            : NOTCH, Electric field optimization 
   Frank Wennmohs         : Technical directorship and infrastructure
   Hang Xu                : AUTO-CI-Response properties 


 We gratefully acknowledge several colleagues who have allowed us to
 interface, adapt or use parts of their codes:
   Stefan Grimme, W. Hujo, H. Kruse, P. Pracht,  : VdW corrections, initial TS optimization,
                  C. Bannwarth, S. Ehlert,         DFT functionals, gCP, sTDA/sTD-DF
                  L. Wittmann, M. Mueller
   Ed Valeev, F. Pavosevic, A. Kumar             : LibInt (2-el integral package), F12 methods
   Garnet Chan, S. Sharma, J. Yang, R. Olivares  : DMRG
   Ulf Ekstrom                                   : XCFun DFT Library
   Mihaly Kallay                                 : mrcc  (arbitrary order and MRCC methods)
   Frank Weinhold                                : gennbo (NPA and NBO analysis)
   Simon Mueller                                 : openCOSMO-RS
   Christopher J. Cramer and Donald G. Truhlar   : smd solvation model
   Lars Goerigk                                  : TD-DFT with DH, B97 family of functionals
   V. Asgeirsson, H. Jonsson                     : NEB implementation
   FAccTs GmbH                                   : IRC, NEB, NEB-TS, DLPNO-Multilevel, CI-OPT
                                                   MM, QMMM, 2- and 3-layer-ONIOM, Crystal-QMMM,
                                                   LR-CPCM, SF, NACMEs, symmetry and pop. for TD-DFT,
                                                   nearIR, NL-DFT gradient (VV10), updates on ESD,
                                                   ML-optimized integration grids, MBIS, APM,
                                                   GOAT, DOCKER, SOLVATOR, interface openCOSMO-RS
   S Lehtola, MJT Oliveira, MAL Marques          : LibXC Library
   Liviu Ungur et al                             : ANISO software


 Your calculation uses the libint2 library for the computation of 2-el integrals
 For citations please refer to: http://libint.valeyev.net

 Your ORCA version has been built with support for libXC version: 6.2.2
 For citations please refer to: https://libxc.gitlab.io

 This ORCA versions uses:
   CBLAS   interface :  Fast vector & matrix operations
   LAPACKE interface :  Fast linear algebra routines
   SCALAPACK package :  Parallel linear algebra routines
   Shared memory     :  Shared parallel matrices




***************************************
The coordinates will be read from file: Mol__Si_C_C_C_C_UFF.xyz
***************************************


Your calculation utilizes the atom-pairwise dispersion correction
based on EEQ partial charges (D4)


================================================================================

----- Orbital basis set information -----
Your calculation utilizes the basis: 6-31+G(d,p)
   H-He, Li-Ne : W. J. Hehre, R. Ditchfield and J.A. Pople, J. Chem. Phys. 56, 2257 (1972).
                 Note: He and Ne are unpublished basis sets taken from the Gaussian program.
                 Note: Li and B from J. D. Dill and J. A. Pople, J. Chem. Phys. 62, 2921 (1975).
   Na - Ar     : M. M. Francl, W. J. Pietro, W. J. Hehre, J. S. Binkley, M. S. Gordon, 
                 D. J. DeFrees and J. A. Pople, J. Chem. Phys. 77, 3654 (1982).
   K - Zn      : V. A. Rassolov, J. A. Pople, M. A. Ratner, and T. L. Windus, J. Chem. Phys. 109, 1223 (1998).
   Additional Pol./Diff. from the 6-311G equivalent.

----- AuxJ basis set information -----
Your calculation utilizes the auxiliary basis: def2/J
   F. Weigend, Phys. Chem. Chem. Phys. 8, 1057 (2006).

================================================================================
                                        WARNINGS
                       Please study these warnings very carefully!
================================================================================


WARNING: Geometry Optimization
  ===> : Switching off AutoStart
         For restart on a previous wavefunction, please use MOREAD

================================================================================
                                       INPUT FILE
================================================================================
NAME = opt.com
|  1> ! B3LYP D4 6-31+G(d,p) def2/J RIJCOSX Opt Freq
|  2> 
|  3> * xyzfile 0 1 Mol__Si_C_C_C_C_UFF.xyz
|  4> 
|  5> 
|  6>                          ****END OF INPUT****
================================================================================

                       *****************************
                       * Geometry Optimization Run *
                       *****************************

Geometry optimization settings:
Update method            Update   .... BFGS
Choice of coordinates    CoordSys .... (2022) Redundant Internals
Initial Hessian          InHess   .... Almloef's Model
Max. no of cycles        MaxIter  .... 51

Convergence Tolerances:
Energy Change            TolE     ....  5.0000e-06 Eh
Max. Gradient            TolMAXG  ....  3.0000e-04 Eh/bohr
RMS Gradient             TolRMSG  ....  1.0000e-04 Eh/bohr
Max. Displacement        TolMAXD  ....  4.0000e-03 bohr
RMS Displacement         TolRMSD  ....  2.0000e-03 bohr
Strict Convergence                .... False

------------------------------------------------------------------------------
                        ORCA OPTIMIZATION COORDINATE SETUP
------------------------------------------------------------------------------

The optimization will be done in redundant internal coordinates (2022)
Making redundant internal coordinates   ...  (2022 redundants) done
Evaluating the initial hessian          ...  (Almloef) done
Evaluating the coordinates              ...  done
Calculating the B-matrix                .... done
Calculating the G-matrix                .... done
Diagonalizing the G-matrix              .... done
The first mode is                       ....   25
The number of degrees of freedom        ....   45

    -----------------------------------------------------------------
                    Redundant Internal Coordinates


    -----------------------------------------------------------------
         Definition                    Initial Value    Approx d2E/dq
    -----------------------------------------------------------------
      1. B(C   1,Si  0)                  1.8666         0.471532   
      2. B(C   2,Si  0)                  1.8666         0.471531   
      3. B(C   3,Si  0)                  1.8666         0.471533   
      4. B(C   4,Si  0)                  1.8666         0.471532   
      5. B(H   5,C   1)                  1.1093         0.335443   
      6. B(H   6,C   1)                  1.1093         0.335443   
      7. B(H   7,C   1)                  1.1093         0.335443   
      8. B(H   8,C   2)                  1.1093         0.335443   
      9. B(H   9,C   2)                  1.1093         0.335443   
     10. B(H  10,C   2)                  1.1093         0.335443   
     11. B(H  11,C   3)                  1.1093         0.335442   
     12. B(H  12,C   3)                  1.1093         0.335443   
     13. B(H  13,C   3)                  1.1093         0.335443   
     14. B(H  14,C   4)                  1.1093         0.335443   
     15. B(H  15,C   4)                  1.1093         0.335443   
     16. B(H  16,C   4)                  1.1093         0.335443   
     17. A(C   3,Si  0,C   4)          109.4713         0.459104   
     18. A(C   1,Si  0,C   4)          109.4713         0.459104   
     19. A(C   1,Si  0,C   2)          109.4712         0.459104   
     20. A(C   2,Si  0,C   4)          109.4712         0.459104   
     21. A(C   2,Si  0,C   3)          109.4712         0.459104   
     22. A(C   1,Si  0,C   3)          109.4712         0.459104   
     23. A(Si  0,C   1,H   5)          109.4488         0.357963   
     24. A(H   6,C   1,H   7)          109.4937         0.284462   
     25. A(H   5,C   1,H   7)          109.4937         0.284462   
     26. A(Si  0,C   1,H   7)          109.4488         0.357963   
     27. A(H   5,C   1,H   6)          109.4936         0.284462   
     28. A(Si  0,C   1,H   6)          109.4488         0.357963   
     29. A(Si  0,C   2,H   9)          109.4488         0.357963   
     30. A(Si  0,C   2,H   8)          109.4488         0.357963   
     31. A(H   8,C   2,H   9)          109.4937         0.284462   
     32. A(H   9,C   2,H  10)          109.4936         0.284462   
     33. A(H   8,C   2,H  10)          109.4937         0.284462   
     34. A(Si  0,C   2,H  10)          109.4487         0.357963   
     35. A(H  12,C   3,H  13)          109.4937         0.284462   
     36. A(H  11,C   3,H  13)          109.4937         0.284462   
     37. A(Si  0,C   3,H  13)          109.4488         0.357963   
     38. A(H  11,C   3,H  12)          109.4936         0.284462   
     39. A(Si  0,C   3,H  12)          109.4488         0.357963   
     40. A(Si  0,C   3,H  11)          109.4487         0.357963   
     41. A(H  15,C   4,H  16)          109.4937         0.284462   
     42. A(H  14,C   4,H  16)          109.4935         0.284462   
     43. A(Si  0,C   4,H  16)          109.4488         0.357963   
     44. A(H  14,C   4,H  15)          109.4937         0.284462   
     45. A(Si  0,C   4,H  15)          109.4488         0.357963   
     46. A(Si  0,C   4,H  14)          109.4488         0.357963   
     47. D(H   6,C   1,Si  0,C   4)     60.0000         0.003932   
     48. D(H   6,C   1,Si  0,C   2)    179.9999         0.003932   
     49. D(H   5,C   1,Si  0,C   4)    -60.0000         0.003932   
     50. D(H   5,C   1,Si  0,C   2)     59.9999         0.003932   
     51. D(H   6,C   1,Si  0,C   3)    -60.0002         0.003932   
     52. D(H   5,C   1,Si  0,C   3)    179.9999         0.003932   
     53. D(H   8,C   2,Si  0,C   1)    -60.0002         0.003932   
     54. D(H   9,C   2,Si  0,C   4)    -60.0003         0.003932   
     55. D(H   9,C   2,Si  0,C   3)     59.9997         0.003932   
     56. D(H   9,C   2,Si  0,C   1)    179.9997         0.003932   
     57. D(H   8,C   2,Si  0,C   4)     59.9998         0.003932   
     58. D(H   8,C   2,Si  0,C   3)    179.9998         0.003932   
     59. D(H  11,C   3,Si  0,C   4)     59.9999         0.003932   
     60. D(H  11,C   3,Si  0,C   2)    -60.0001         0.003932   
     61. D(H  11,C   3,Si  0,C   1)   -180.0000         0.003932   
     62. D(H  12,C   3,Si  0,C   4)    -60.0001         0.003932   
     63. D(H  12,C   3,Si  0,C   2)    180.0000         0.003932   
     64. D(H  12,C   3,Si  0,C   1)     60.0001         0.003932   
     65. D(H  15,C   4,Si  0,C   3)     60.0004         0.003932   
     66. D(H  15,C   4,Si  0,C   2)   -179.9996         0.003932   
     67. D(H  15,C   4,Si  0,C   1)    -59.9997         0.003932   
     68. D(H  14,C   4,Si  0,C   3)    -59.9997         0.003932   
     69. D(H  14,C   4,Si  0,C   2)     60.0002         0.003932   
     70. D(H  14,C   4,Si  0,C   1)   -179.9998         0.003932   
    -----------------------------------------------------------------

Number of atoms                         .... 17
Number of degrees of freedom            .... 70


         *************************************************************
         *                GEOMETRY OPTIMIZATION CYCLE   1            *
         *************************************************************
---------------------------------
CARTESIAN COORDINATES (ANGSTROEM)
---------------------------------
  Si     0.000001   -0.000000   -0.000001
  C      1.498371    0.123212    1.106318
  C     -1.530046   -0.218010    1.046739
  C     -0.155899    1.560417   -1.012437
  C      0.187575   -1.465619   -1.140620
  H      1.590663   -0.804286    1.707811
  H      2.407419    0.252759    0.483893
  H      1.386511    0.994305    1.783996
  H     -1.437008   -1.145426    1.648243
  H     -2.420259   -0.291184    0.388916
  H     -1.641155    0.653165    1.724435
  H     -1.046451    1.486797   -1.669752
  H      0.753556    1.689612   -1.634340
  H     -0.267351    2.431154   -0.334234
  H     -0.703059   -1.538489   -1.797906
  H      1.096949   -1.335682   -1.762487
  H      0.280184   -2.392726   -0.538573

----------------------------
CARTESIAN COORDINATES (A.U.)
----------------------------
  NO LB      ZA    FRAG     MASS         X           Y           Z
   0 Si   14.0000    0    28.086    0.000002   -0.000000   -0.000002
   1 C     6.0000    0    12.011    2.831511    0.232837    2.090638
   2 C     6.0000    0    12.011   -2.891368   -0.411979    1.978050
   3 C     6.0000    0    12.011   -0.294606    2.948761   -1.913229
   4 C     6.0000    0    12.011    0.354465   -2.769619   -2.155459
   5 H     1.0000    0     1.008    3.005917   -1.519880    3.227295
   6 H     1.0000    0     1.008    4.549363    0.477645    0.914425
   7 H     1.0000    0     1.008    2.620126    1.878964    3.371264
   8 H     1.0000    0     1.008   -2.715552   -2.164541    3.114728
   9 H     1.0000    0     1.008   -4.573627   -0.550258    0.734945
  10 H     1.0000    0     1.008   -3.101333    1.234303    3.258710
  11 H     1.0000    0     1.008   -1.977506    2.809639   -3.155374
  12 H     1.0000    0     1.008    1.424014    3.192904   -3.088455
  13 H     1.0000    0     1.008   -0.505220    4.594215   -0.631611
  14 H     1.0000    0     1.008   -1.328589   -2.907323   -3.397550
  15 H     1.0000    0     1.008    2.072933   -2.524073   -3.330618
  16 H     1.0000    0     1.008    0.529471   -4.521597   -1.017755

--------------------------------
INTERNAL COORDINATES (ANGSTROEM)
--------------------------------
 Si     0   0   0     0.000000000000     0.00000000     0.00000000
 C      1   0   0     1.866610720961     0.00000000     0.00000000
 C      1   2   0     1.866611049445   109.47117800     0.00000000
 C      1   2   3     1.866609942646   109.47121348   119.99992380
 C      1   2   3     1.866610500827   109.47127891   240.00005362
 H      2   1   3     1.109307974512   109.44881215    59.99994306
 H      2   1   3     1.109307699486   109.44880479   179.99990925
 H      2   1   3     1.109307507382   109.44875244   299.99993086
 H      3   1   2     1.109307697853   109.44881162   299.99979215
 H      3   1   2     1.109308216401   109.44877283   179.99966626
 H      3   1   2     1.109307423090   109.44872552    59.99979038
 H      4   1   2     1.109308693885   109.44871097   180.00002157
 H      4   1   2     1.109307480575   109.44880643    60.00005918
 H      4   1   2     1.109307793483   109.44880149   300.00001781
 H      5   1   2     1.109307822316   109.44884548   180.00019300
 H      5   1   2     1.109307559487   109.44877173   300.00031304
 H      5   1   2     1.109308075576   109.44877199    60.00032248

---------------------------
INTERNAL COORDINATES (A.U.)
---------------------------
 Si     0   0   0     0.000000000000     0.00000000     0.00000000
 C      1   0   0     3.527383061257     0.00000000     0.00000000
 C      1   2   0     3.527383682002   109.47117800     0.00000000
 C      1   2   3     3.527381590455   109.47121348   119.99992380
 C      1   2   3     3.527382645265   109.47127891   240.00005362
 H      2   1   3     2.096288270003   109.44881215    59.99994306
 H      2   1   3     2.096287750278   109.44880479   179.99990925
 H      2   1   3     2.096287387254   109.44875244   299.99993086
 H      3   1   2     2.096287747193   109.44881162   299.99979215
 H      3   1   2     2.096288727106   109.44877283   179.99966626
 H      3   1   2     2.096287227966   109.44872552    59.99979038
 H      4   1   2     2.096289629421   109.44871097   180.00002157
 H      4   1   2     2.096287336596   109.44880643    60.00005918
 H      4   1   2     2.096287927907   109.44880149   300.00001781
 H      5   1   2     2.096287982394   109.44884548   180.00019300
 H      5   1   2     2.096287485718   109.44877173   300.00031304
 H      5   1   2     2.096288460987   109.44877199    60.00032248

---------------------
BASIS SET INFORMATION
---------------------
There are 3 groups of distinct atoms

 Group   1 Type Si  : 17s11p1d contracted to 5s4p1d pattern {66311/6311/1}
 Group   2 Type C   : 11s5p1d contracted to 4s3p1d pattern {6311/311/1}
 Group   3 Type H   : 4s1p contracted to 2s1p pattern {31/1}

Atom   0Si   basis set group =>   1
Atom   1C    basis set group =>   2
Atom   2C    basis set group =>   2
Atom   3C    basis set group =>   2
Atom   4C    basis set group =>   2
Atom   5H    basis set group =>   3
Atom   6H    basis set group =>   3
Atom   7H    basis set group =>   3
Atom   8H    basis set group =>   3
Atom   9H    basis set group =>   3
Atom  10H    basis set group =>   3
Atom  11H    basis set group =>   3
Atom  12H    basis set group =>   3
Atom  13H    basis set group =>   3
Atom  14H    basis set group =>   3
Atom  15H    basis set group =>   3
Atom  16H    basis set group =>   3
---------------------------------
AUXILIARY/J BASIS SET INFORMATION
---------------------------------
There are 3 groups of distinct atoms

 Group   1 Type Si  : 14s5p5d2f1g contracted to 8s4p3d1f1g pattern {71111111/2111/311/2/1}
 Group   2 Type C   : 12s5p4d2f1g contracted to 6s4p3d1f1g pattern {711111/2111/211/2/1}
 Group   3 Type H   : 5s2p1d contracted to 3s1p1d pattern {311/2/1}

Atom   0Si   basis set group =>   1
Atom   1C    basis set group =>   2
Atom   2C    basis set group =>   2
Atom   3C    basis set group =>   2
Atom   4C    basis set group =>   2
Atom   5H    basis set group =>   3
Atom   6H    basis set group =>   3
Atom   7H    basis set group =>   3
Atom   8H    basis set group =>   3
Atom   9H    basis set group =>   3
Atom  10H    basis set group =>   3
Atom  11H    basis set group =>   3
Atom  12H    basis set group =>   3
Atom  13H    basis set group =>   3
Atom  14H    basis set group =>   3
Atom  15H    basis set group =>   3
Atom  16H    basis set group =>   3
------------------------------------------------------------------------------
                             ORCA STARTUP CALCULATIONS
                           -- RI-GTO INTEGRALS CHOSEN --
------------------------------------------------------------------------------
------------------------------------------------------------------------------
                   ___                                                        
                  /   \      - P O W E R E D   B Y -                         
                 /     \                                                     
                 |  |  |   _    _      __       _____    __    __             
                 |  |  |  | |  | |    /  \     |  _  \  |  |  /  |          
                  \  \/   | |  | |   /    \    | | | |  |  | /  /          
                 / \  \   | |__| |  /  /\  \   | |_| |  |  |/  /          
                |  |  |   |  __  | /  /__\  \  |    /   |      \           
                |  |  |   | |  | | |   __   |  |    \   |  |\   \          
                \     /   | |  | | |  |  |  |  | |\  \  |  | \   \       
                 \___/    |_|  |_| |__|  |__|  |_| \__\ |__|  \__/        
                                                                              
                      - O R C A' S   B I G   F R I E N D -                    
                                      &                                       
                       - I N T E G R A L  F E E D E R -                       
                                                                              
 v1 FN, 2020, v2 2021, v3 2022-2024                                           
------------------------------------------------------------------------------


----------------------
SHARK INTEGRAL PACKAGE
----------------------

Number of atoms                             ...     17
Number of basis functions                   ...    154
Number of shells                            ...     78
Maximum angular momentum                    ...      2
Integral batch strategy                     ... SHARK/LIBINT Hybrid
RI-J (if used) integral strategy            ... SPLIT-RIJ (Revised 2003 algorithm where possible)
Printlevel                                  ...      1
Contraction scheme used                     ... SEGMENTED contraction
Prescreening option                         ... SCHWARTZ
   Thresh                                   ... 2.500e-11
   Tcut                                     ... 2.500e-12
   Tpresel                                  ... 2.500e-12 
Coulomb Range Separation                    ... NOT USED
Exchange Range Separation                   ... NOT USED
Multipole approximations                    ... NOT USED
Finite Nucleus Model                        ... NOT USED
CABS basis                                  ... NOT available
Auxiliary Coulomb fitting basis             ... AVAILABLE
   # of basis functions in Aux-J            ...    379
   # of shells in Aux-J                     ...    137
   Maximum angular momentum in Aux-J        ...      4
Auxiliary J/K fitting basis                 ... NOT available
Auxiliary Correlation fitting basis         ... NOT available
Auxiliary 'external' fitting basis          ... NOT available

Checking pre-screening integrals            ... done (  0.0 sec) Dimension = 78
Check shell pair data                       ... done (  0.0 sec)
Shell pair information
Shell pair cut-off parameter TPreSel        ...   2.5e-12
Total number of shell pairs                 ...      3081
Shell pairs after pre-screening             ...      2975
Total number of primitive shell pairs       ...     12574
Primitive shell pairs kept                  ...      9194
          la=0 lb=0:   1007 shell pairs
          la=1 lb=0:   1212 shell pairs
          la=1 lb=1:    376 shell pairs
          la=2 lb=0:    225 shell pairs
          la=2 lb=1:    140 shell pairs
          la=2 lb=2:     15 shell pairs

Calculating one electron integrals          ... done (  0.0 sec)
Calculating RI/J V-Matrix + Cholesky decomp.... done (  0.0 sec)
Calculating Nuclear repulsion               ... done (  0.0 sec) ENN=    247.140258171620 Eh

Diagonalization of the overlap matrix:
Smallest eigenvalue                        ... 3.688e-04
Time for diagonalization                   ...    0.002 sec
Threshold for overlap eigenvalues          ... 1.000e-07
Number of eigenvalues below threshold      ... 0
Time for construction of square roots      ...    0.000 sec
Total time needed                          ...    0.002 sec

-------------------
DFT GRID GENERATION
-------------------

General Integration Accuracy     IntAcc      ... 4.388
Radial Grid Type                 RadialGrid  ... OptM3 with GC (2021)
Angular Grid (max. ang.)         AngularGrid ... 4 (Lebedev-302)
Angular grid pruning method      GridPruning ... 4 (adaptive)
Weight generation scheme         WeightScheme... mBecke (2022)
Basis function cutoff            BFCut       ... 1.0000e-11
Integration weight cutoff        WCut        ... 1.0000e-14
Partially contracted basis set               ... off
Rotationally invariant grid construction     ... off
Angular grids for H and He will be reduced by one unit
Diffuse basis detected: some atoms will have their outermost
                        angular grid increased by 1.

Total number of grid points                  ...    71178
Total number of batches                      ...     1120
Average number of points per batch           ...       63
Average number of grid points per atom       ...     4187

--------------------
COSX GRID GENERATION
--------------------

GRIDX 1
-------
General Integration Accuracy     IntAcc      ... 3.816
Radial Grid Type                 RadialGrid  ... OptM3 with GC (2021)
Angular Grid (max. ang.)         AngularGrid ... 1 (Lebedev-50)
Angular grid pruning method      GridPruning ... 4 (adaptive)
Weight generation scheme         WeightScheme... mBecke (2022)
Basis function cutoff            BFCut       ... 1.0000e-11
Integration weight cutoff        WCut        ... 1.0000e-14
Partially contracted basis set               ... on
Rotationally invariant grid construction     ... off
Angular grids for H and He will be reduced by one unit
Diffuse basis detected: some atoms will have their outermost
                        angular grid increased by 1.

Total number of grid points                  ...    10172
Total number of batches                      ...       88
Average number of points per batch           ...      115
Average number of grid points per atom       ...      598
UseSFitting                                  ... on

GRIDX 2
-------
General Integration Accuracy     IntAcc      ... 4.020
Radial Grid Type                 RadialGrid  ... OptM3 with GC (2021)
Angular Grid (max. ang.)         AngularGrid ... 2 (Lebedev-110)
Angular grid pruning method      GridPruning ... 4 (adaptive)
Weight generation scheme         WeightScheme... mBecke (2022)
Basis function cutoff            BFCut       ... 1.0000e-11
Integration weight cutoff        WCut        ... 1.0000e-14
Partially contracted basis set               ... on
Rotationally invariant grid construction     ... off
Angular grids for H and He will be reduced by one unit
Diffuse basis detected: some atoms will have their outermost
                        angular grid increased by 1.

Total number of grid points                  ...    19642
Total number of batches                      ...      162
Average number of points per batch           ...      121
Average number of grid points per atom       ...     1155
UseSFitting                                  ... on

GRIDX 3
-------
General Integration Accuracy     IntAcc      ... 4.338
Radial Grid Type                 RadialGrid  ... OptM3 with GC (2021)
Angular Grid (max. ang.)         AngularGrid ... 3 (Lebedev-194)
Angular grid pruning method      GridPruning ... 4 (adaptive)
Weight generation scheme         WeightScheme... mBecke (2022)
Basis function cutoff            BFCut       ... 1.0000e-11
Integration weight cutoff        WCut        ... 1.0000e-14
Partially contracted basis set               ... on
Rotationally invariant grid construction     ... off
Angular grids for H and He will be reduced by one unit
Diffuse basis detected: some atoms will have their outermost
                        angular grid increased by 1.

Total number of grid points                  ...    42796
Total number of batches                      ...      341
Average number of points per batch           ...      125
Average number of grid points per atom       ...     2517
UseSFitting                                  ... on
Initializing property integral containers    ... done (  0.0 sec)

SHARK setup successfully completed in   0.7 seconds

Maximum memory used throughout the entire STARTUP-calculation: 28.9 MB
-------------------------------------------------------------------------------
                                 ORCA GUESS
                   Start orbitals & Density for SCF / CASSCF
-------------------------------------------------------------------------------

------------
SCF SETTINGS
------------
Hamiltonian:
 Density Functional     Method          .... DFT(GTOs)
 Exchange Functional    Exchange        .... B88
   X-Alpha parameter    XAlpha          ....  0.666667
   Becke's b parameter  XBeta           ....  0.004200
 Correlation Functional Correlation     .... LYP
 LDA part of GGA corr.  LDAOpt          .... VWN-5
 Gradients option       PostSCFGGA      .... off
 Hybrid DFT is turned on
   Fraction HF Exchange ScalHFX         ....  0.200000
   Scaling of DF-GGA-X  ScalDFX         ....  0.720000
   Scaling of DF-GGA-C  ScalDFC         ....  0.810000
   Scaling of DF-LDA-C  ScalLDAC        ....  1.000000
   Perturbative correction              ....  0.000000
   NL short-range parameter             ....  4.800000
 RI-approximation to the Coulomb term is turned on
   Number of AuxJ basis functions       .... 379
   RIJ-COSX (HFX calculated with COS-X)).... on


General Settings:
 Integral files         IntName         .... opt
 Hartree-Fock type      HFTyp           .... RHF
 Total Charge           Charge          ....    0
 Multiplicity           Mult            ....    1
 Number of Electrons    NEL             ....   50
 Basis Dimension        Dim             ....  154
 Nuclear Repulsion      ENuc            ....    247.1402581716 Eh

Convergence Acceleration:
 AO-DIIS                CNVDIIS         .... on
   Start iteration      DIISMaxIt       ....    12
   Startup error        DIISStart       ....  0.200000
   # of expansion vecs  DIISMaxEq       ....     5
   Bias factor          DIISBfac        ....   1.050
   Max. coefficient     DIISMaxC        ....  10.000
 MO-DIIS                CNVKDIIS        .... off
 Trust-Rad. Augm. Hess. CNVTRAH         .... auto
   Auto Start mean grad. ratio tolernc. ....  1.125000
   Auto Start start iteration           ....    50
   Auto Start num. interpolation iter.  ....    10
   Max. Number of Micro iterations      ....    24
   Max. Number of Macro iterations      .... Maxiter - #DIIS iter
   Number of Davidson start vectors     ....     2
   Converg. threshold    (grad. norm)   ....   1.000e-05
   Grad. Scal. Fac. for Micro threshold ....   0.100
   Minimum threshold for Micro iter.    ....   1.000e-02
   NR start threshold (gradient norm)   ....   1.000e-04
   Initial trust radius                 ....   0.400
   Minimum AH scaling param. (alpha)    ....   1.000
   Maximum AH scaling param. (alpha)    .... 1000.000
   Quad. conv. algorithm                .... NR
   White noise on init. David. guess    .... on
   Maximum white noise                  ....   0.010
   Pseudo random numbers                .... off
   Inactive MOs                         .... canonical
   Orbital update algorithm             .... Taylor
   Preconditioner                       .... Diag
   Full preconditioner red. dimension   ....   250
 SOSCF                  CNVSOSCF        .... on
   Start iteration      SOSCFMaxIt      ....   150
   Startup grad/error   SOSCFStart      ....  0.003300
   Hessian update       SOSCFHessUp     .... L-BFGS
 Level Shifting         CNVShift        .... on
   Level shift para.    LevelShift      ....    0.2500
   Turn off err/grad.   ShiftErr        ....    0.0010
 Zerner damping         CNVZerner       .... off
 Static damping         CNVDamp         .... on
   Fraction old density DampFac         ....    0.7000
   Max. Damping (<1)    DampMax         ....    0.9800
   Min. Damping (>=0)   DampMin         ....    0.0000
   Turn off err/grad.   DampErr         ....    0.1000

SCF Procedure:
 Maximum # iterations   MaxIter         ....   125
 SCF integral mode      SCFMode         .... Direct
   Integral package                     .... SHARK and LIBINT hybrid scheme
 Reset frequency        DirectResetFreq ....    20
 Integral Threshold     Thresh          ....  2.500e-11 Eh
 Primitive CutOff       TCut            ....  2.500e-12 Eh

Convergence Tolerance:
 Convergence Check Mode ConvCheckMode   .... Total+1el-Energy
 Convergence forced     ConvForced      .... 0
 Energy Change          TolE            ....  1.000e-08 Eh
 1-El. energy change                    ....  1.000e-05 Eh
 Orbital Gradient       TolG            ....  1.000e-05
 Orbital Rotation angle TolX            ....  1.000e-05
 DIIS Error             TolErr          ....  5.000e-07

------------------------------
INITIAL GUESS: MODEL POTENTIAL
------------------------------
Loading Hartree-Fock densities                     ... done
Calculating cut-offs                               ... done
Initializing the effective Hamiltonian             ... done
Setting up the integral package (SHARK)            ... done
Starting the Coulomb interaction                   ... done (   0.1 sec)
Making the grid                                    ... done (   0.1 sec)
Mapping shells                                     ... done
Starting the XC term evaluation                    ... done (   0.1 sec)
  promolecular density results
     # of electrons  =     49.993933205
     EX              =    -44.444451580
     EC              =     -1.668844101
     EX+EC           =    -46.113295681
Transforming the Hamiltonian                       ... done (   0.0 sec)
Diagonalizing the Hamiltonian                      ... done (   0.0 sec)
Back transforming the eigenvectors                 ... done (   0.0 sec)
Now organizing SCF variables                       ... done
                      ------------------
                      INITIAL GUESS DONE (   0.2 sec)
                      ------------------
             **** ENERGY FILE WAS UPDATED (opt.en.tmp) ****
Finished Guess after   0.2 sec
Maximum memory used throughout the entire GUESS-calculation: 14.5 MB

-------------------------------------------------------------------------------------------
                                      ORCA LEAN-SCF
                              memory conserving SCF solver
-------------------------------------------------------------------------------------------

----------------------------------------D-I-I-S--------------------------------------------
Iteration    Energy (Eh)           Delta-E    RMSDP     MaxDP     DIISErr   Damp  Time(sec)
-------------------------------------------------------------------------------------------
               ***  Starting incremental Fock matrix formation  ***
    1    -448.6980939313967838     0.00e+00  3.30e-03  7.04e-02  2.13e-01  0.700   2.1
    2    -448.8542181497318779    -1.56e-01  2.40e-03  4.74e-02  1.09e-01  0.700   1.2
                               ***Turning on AO-DIIS***
    3    -448.9161313802360382    -6.19e-02  9.11e-04  1.55e-02  3.92e-02  0.700   1.2
    4    -448.9505143837174046    -3.44e-02  1.33e-03  2.13e-02  1.79e-02  0.000   1.1
    5    -449.0247247494991143    -7.42e-02  3.32e-04  4.69e-03  8.72e-03  0.000   1.1
                              *** Initializing SOSCF ***
---------------------------------------S-O-S-C-F--------------------------------------
Iteration    Energy (Eh)           Delta-E    RMSDP     MaxDP     MaxGrad    Time(sec)
--------------------------------------------------------------------------------------
    6    -449.0254273603899264    -7.03e-04  1.20e-04  1.66e-03  2.37e-03     1.1
               *** Restarting incremental Fock matrix formation ***
    7    -449.0255591205097971    -1.32e-04  1.12e-04  1.18e-03  3.56e-04     2.0
    8    -449.0255611403471221    -2.02e-06  2.88e-05  5.86e-04  3.81e-04     1.7
    9    -449.0255663408927376    -5.20e-06  8.87e-06  2.18e-04  2.93e-05     1.5
   10    -449.0255663661902190    -2.53e-08  2.74e-06  1.07e-04  2.95e-05     1.4
   11    -449.0255663689516723    -2.76e-09  7.23e-07  1.26e-05  3.89e-06     1.2
                 **** Energy Check signals convergence ****

               *****************************************************
               *                     SUCCESS                       *
               *           SCF CONVERGED AFTER  11 CYCLES          *
               *****************************************************

Recomputing exchange energy using gridx3       ... done (    3.478 sec)
Old exchange energy                            :     -9.073360660 Eh
New exchange energy                            :     -9.073371905 Eh
Exchange energy change after final integration :     -0.000011245 Eh
Total energy after final integration           :   -449.025577614 Eh
             **** ENERGY FILE WAS UPDATED (opt.en.tmp) ****

----------------
TOTAL SCF ENERGY
----------------

Total Energy       :       -449.02557761401243 Eh          -12218.60715 eV

Components:
Nuclear Repulsion  :        247.14025817162039 Eh            6725.02832 eV
Electronic Energy  :       -696.16582454057209 Eh          -18943.63516 eV
One Electron Energy:      -1105.23496187346950 Eh          -30074.97229 eV
Two Electron Energy:        409.06913733289741 Eh           11131.33713 eV

Virial components:
Potential Energy   :       -896.10794912125982 Eh          -24384.33697 eV
Kinetic Energy     :        447.08237150724739 Eh           12165.72982 eV
Virial Ratio       :          2.00434641629956

DFT components:
N(Alpha)           :       25.000011944898 electrons
N(Beta)            :       25.000011944898 electrons
N(Total)           :       50.000023889796 electrons
E(X)               :      -35.930485032244 Eh       
E(C)               :       -1.982856353818 Eh       
E(XC)              :      -37.913341386062 Eh       

---------------
SCF CONVERGENCE
---------------

  Last Energy change         ...    2.7615e-09  Tolerance :   1.0000e-08
  Last MAX-Density change    ...    1.2629e-05  Tolerance :   1.0000e-07
  Last RMS-Density change    ...    7.2282e-07  Tolerance :   5.0000e-09
  Last DIIS Error            ...    2.3687e-03  Tolerance :   5.0000e-07
  Last Orbital Gradient      ...    3.8946e-06  Tolerance :   1.0000e-05
  Last Orbital Rotation      ...    7.4324e-06  Tolerance :   1.0000e-05


----------------
ORBITAL ENERGIES
----------------

  NO   OCC          E(Eh)            E(eV) 
   0   2.0000     -66.091932     -1798.4529 
   1   2.0000     -10.155719      -276.3512 
   2   2.0000     -10.155717      -276.3511 
   3   2.0000     -10.155713      -276.3510 
   4   2.0000     -10.155707      -276.3508 
   5   2.0000      -5.249803      -142.8544 
   6   2.0000      -3.607888       -98.1756 
   7   2.0000      -3.607888       -98.1756 
   8   2.0000      -3.607886       -98.1756 
   9   2.0000      -0.719033       -19.5659 
  10   2.0000      -0.670385       -18.2421 
  11   2.0000      -0.670381       -18.2420 
  12   2.0000      -0.670377       -18.2419 
  13   2.0000      -0.447995       -12.1906 
  14   2.0000      -0.412746       -11.2314 
  15   2.0000      -0.412740       -11.2312 
  16   2.0000      -0.412737       -11.2311 
  17   2.0000      -0.396235       -10.7821 
  18   2.0000      -0.396223       -10.7818 
  19   2.0000      -0.376876       -10.2553 
  20   2.0000      -0.376875       -10.2553 
  21   2.0000      -0.376866       -10.2550 
  22   2.0000      -0.289857        -7.8874 
  23   2.0000      -0.289852        -7.8873 
  24   2.0000      -0.289849        -7.8872 
  25   0.0000      -0.010787        -0.2935 
  26   0.0000       0.021940         0.5970 
  27   0.0000       0.021949         0.5973 
  28   0.0000       0.021957         0.5975 
  29   0.0000       0.059171         1.6101 
  30   0.0000       0.059173         1.6102 
  31   0.0000       0.059201         1.6109 
  32   0.0000       0.074325         2.0225 
  33   0.0000       0.075355         2.0505 
  34   0.0000       0.075434         2.0527 
  35   0.0000       0.104789         2.8514 
*Only the first 10 virtual orbitals were printed.

                    ********************************
                    * MULLIKEN POPULATION ANALYSIS *
                    ********************************

-----------------------
MULLIKEN ATOMIC CHARGES
-----------------------
   0 Si:    0.889259
   1 C :   -0.684735
   2 C :   -0.685097
   3 C :   -0.685014
   4 C :   -0.684696
   5 H :    0.154257
   6 H :    0.154214
   7 H :    0.154134
   8 H :    0.154169
   9 H :    0.154167
  10 H :    0.154250
  11 H :    0.154112
  12 H :    0.154260
  13 H :    0.154133
  14 H :    0.154207
  15 H :    0.154161
  16 H :    0.154217
Sum of atomic charges:   -0.0000000

--------------------------------
MULLIKEN REDUCED ORBITAL CHARGES
--------------------------------
  0 Sis       :     4.923983  s :     4.923983
      pz      :     2.653851  p :     7.963231
      px      :     2.654660
      py      :     2.654720
      dz2     :     0.018227  d :     0.223527
      dxz     :     0.062450
      dyz     :     0.062266
      dx2y2   :     0.060328
      dxy     :     0.020257

  1 C s       :     3.377752  s :     3.377752
      pz      :     1.097339  p :     3.286840
      px      :     1.125345
      py      :     1.064156
      dz2     :     0.000290  d :     0.020143
      dxz     :     0.005068
      dyz     :     0.007890
      dx2y2   :     0.006278
      dxy     :     0.000617

  2 C s       :     3.377851  s :     3.377851
      pz      :     1.093903  p :     3.287102
      px      :     1.128134
      py      :     1.065064
      dz2     :     0.000302  d :     0.020144
      dxz     :     0.005248
      dyz     :     0.007867
      dx2y2   :     0.006198
      dxy     :     0.000530

  3 C s       :     3.377843  s :     3.377843
      pz      :     1.091910  p :     3.287027
      px      :     1.064417
      py      :     1.130700
      dz2     :     0.000298  d :     0.020144
      dxz     :     0.007934
      dyz     :     0.005281
      dx2y2   :     0.006057
      dxy     :     0.000574

  4 C s       :     3.377741  s :     3.377741
      pz      :     1.099442  p :     3.286812
      px      :     1.064662
      py      :     1.122708
      dz2     :     0.000271  d :     0.020143
      dxz     :     0.007886
      dyz     :     0.004993
      dx2y2   :     0.006409
      dxy     :     0.000584

  5 H s       :     0.833732  s :     0.833732
      pz      :     0.003839  p :     0.012010
      px      :     0.003052
      py      :     0.005119

  6 H s       :     0.833774  s :     0.833774
      pz      :     0.003994  p :     0.012012
      px      :     0.005814
      py      :     0.002203

  7 H s       :     0.833852  s :     0.833852
      pz      :     0.004174  p :     0.012014
      px      :     0.003081
      py      :     0.004759

  8 H s       :     0.833818  s :     0.833818
      pz      :     0.003793  p :     0.012013
      px      :     0.003105
      py      :     0.005115

  9 H s       :     0.833819  s :     0.833819
      pz      :     0.004101  p :     0.012014
      px      :     0.005736
      py      :     0.002177

 10 H s       :     0.833739  s :     0.833739
      pz      :     0.004124  p :     0.012011
      px      :     0.003101
      py      :     0.004786

 11 H s       :     0.833873  s :     0.833873
      pz      :     0.004006  p :     0.012014
      px      :     0.004879
      py      :     0.003129

 12 H s       :     0.833729  s :     0.833729
      pz      :     0.003849  p :     0.012011
      px      :     0.005010
      py      :     0.003152

 13 H s       :     0.833853  s :     0.833853
      pz      :     0.004167  p :     0.012014
      px      :     0.002192
      py      :     0.005655

 14 H s       :     0.833782  s :     0.833782
      pz      :     0.004109  p :     0.012011
      px      :     0.004899
      py      :     0.003003

 15 H s       :     0.833826  s :     0.833826
      pz      :     0.003956  p :     0.012013
      px      :     0.004998
      py      :     0.003059

 16 H s       :     0.833770  s :     0.833770
      pz      :     0.003939  p :     0.012013
      px      :     0.002183
      py      :     0.005891



                     *******************************
                     * LOEWDIN POPULATION ANALYSIS *
                     *******************************

----------------------
LOEWDIN ATOMIC CHARGES
----------------------
   0 Si:    0.631539
   1 C :   -0.596042
   2 C :   -0.596046
   3 C :   -0.596041
   4 C :   -0.596023
   5 H :    0.146053
   6 H :    0.146059
   7 H :    0.146042
   8 H :    0.146053
   9 H :    0.146058
  10 H :    0.146052
  11 H :    0.146040
  12 H :    0.146056
  13 H :    0.146054
  14 H :    0.146038
  15 H :    0.146046
  16 H :    0.146061

-------------------------------
LOEWDIN REDUCED ORBITAL CHARGES
-------------------------------
  0 Sis       :     4.786993  s :     4.786993
      pz      :     2.758145  p :     8.274616
      px      :     2.758233
      py      :     2.758238
      dz2     :     0.022269  d :     0.306852
      dxz     :     0.087572
      dyz     :     0.087298
      dx2y2   :     0.084449
      dxy     :     0.025264

  1 C s       :     3.003214  s :     3.003214
      pz      :     1.187182  p :     3.553027
      px      :     1.233443
      py      :     1.132402
      dz2     :     0.000721  d :     0.039801
      dxz     :     0.011154
      dyz     :     0.014330
      dx2y2   :     0.012281
      dxy     :     0.001314

  2 C s       :     3.003214  s :     3.003214
      pz      :     1.181369  p :     3.553028
      px      :     1.237792
      py      :     1.133867
      dz2     :     0.000724  d :     0.039804
      dxz     :     0.011368
      dyz     :     0.014295
      dx2y2   :     0.012194
      dxy     :     0.001221

  3 C s       :     3.003210  s :     3.003210
      pz      :     1.178166  p :     3.553028
      px      :     1.132814
      py      :     1.242048
      dz2     :     0.000714  d :     0.039803
      dxz     :     0.014386
      dyz     :     0.011391
      dx2y2   :     0.012033
      dxy     :     0.001280

  4 C s       :     3.003219  s :     3.003219
      pz      :     1.190665  p :     3.553001
      px      :     1.133293
      py      :     1.229044
      dz2     :     0.000705  d :     0.039803
      dxz     :     0.014354
      dyz     :     0.011044
      dx2y2   :     0.012431
      dxy     :     0.001268

  5 H s       :     0.814257  s :     0.814257
      pz      :     0.012457  p :     0.039690
      px      :     0.007921
      py      :     0.019311

  6 H s       :     0.814250  s :     0.814250
      pz      :     0.013084  p :     0.039691
      px      :     0.020440
      py      :     0.006166

  7 H s       :     0.814269  s :     0.814269
      pz      :     0.013958  p :     0.039689
      px      :     0.008035
      py      :     0.017696

  8 H s       :     0.814258  s :     0.814258
      pz      :     0.012353  p :     0.039689
      px      :     0.008053
      py      :     0.019284

  9 H s       :     0.814252  s :     0.814252
      pz      :     0.013680  p :     0.039690
      px      :     0.019994
      py      :     0.006016

 10 H s       :     0.814257  s :     0.814257
      pz      :     0.013857  p :     0.039690
      px      :     0.008058
      py      :     0.017776

 11 H s       :     0.814271  s :     0.814271
      pz      :     0.013379  p :     0.039688
      px      :     0.018232
      py      :     0.008078

 12 H s       :     0.814255  s :     0.814255
      pz      :     0.012682  p :     0.039690
      px      :     0.018808
      py      :     0.008200

 13 H s       :     0.814256  s :     0.814256
      pz      :     0.014042  p :     0.039690
      px      :     0.006106
      py      :     0.019542

 14 H s       :     0.814273  s :     0.814273
      pz      :     0.013601  p :     0.039689
      px      :     0.018294
      py      :     0.007794

 15 H s       :     0.814265  s :     0.814265
      pz      :     0.012902  p :     0.039689
      px      :     0.018763
      py      :     0.008024

 16 H s       :     0.814249  s :     0.814249
      pz      :     0.012761  p :     0.039690
      px      :     0.006055
      py      :     0.020873



                      *****************************
                      * MAYER POPULATION ANALYSIS *
                      *****************************

  NA   - Mulliken gross atomic population
  ZA   - Total nuclear charge
  QA   - Mulliken gross atomic charge
  VA   - Mayer's total valence
  BVA  - Mayer's bonded valence
  FA   - Mayer's free valence

  ATOM       NA         ZA         QA         VA         BVA        FA
  0 Si    13.1107    14.0000     0.8893     3.6076     3.6076     0.0000
  1 C      6.6847     6.0000    -0.6847     3.6301     3.6301    -0.0000
  2 C      6.6851     6.0000    -0.6851     3.6300     3.6300    -0.0000
  3 C      6.6850     6.0000    -0.6850     3.6301     3.6301    -0.0000
  4 C      6.6847     6.0000    -0.6847     3.6302     3.6302    -0.0000
  5 H      0.8457     1.0000     0.1543     0.9508     0.9508    -0.0000
  6 H      0.8458     1.0000     0.1542     0.9508     0.9508    -0.0000
  7 H      0.8459     1.0000     0.1541     0.9509     0.9509    -0.0000
  8 H      0.8458     1.0000     0.1542     0.9508     0.9508    -0.0000
  9 H      0.8458     1.0000     0.1542     0.9509     0.9509    -0.0000
 10 H      0.8458     1.0000     0.1542     0.9508     0.9508    -0.0000
 11 H      0.8459     1.0000     0.1541     0.9509     0.9509    -0.0000
 12 H      0.8457     1.0000     0.1543     0.9508     0.9508    -0.0000
 13 H      0.8459     1.0000     0.1541     0.9509     0.9509    -0.0000
 14 H      0.8458     1.0000     0.1542     0.9508     0.9508    -0.0000
 15 H      0.8458     1.0000     0.1542     0.9508     0.9508    -0.0000
 16 H      0.8458     1.0000     0.1542     0.9509     0.9509    -0.0000

  Mayer bond orders larger than 0.100000
B(  0-Si,  1-C ) :   0.8904 B(  0-Si,  2-C ) :   0.8901 B(  0-Si,  3-C ) :   0.8903 
B(  0-Si,  4-C ) :   0.8903 B(  1-C ,  5-H ) :   0.9598 B(  1-C ,  6-H ) :   0.9599 
B(  1-C ,  7-H ) :   0.9598 B(  2-C ,  8-H ) :   0.9597 B(  2-C ,  9-H ) :   0.9599 
B(  2-C , 10-H ) :   0.9598 B(  3-C , 11-H ) :   0.9598 B(  3-C , 12-H ) :   0.9598 
B(  3-C , 13-H ) :   0.9599 B(  4-C , 14-H ) :   0.9598 B(  4-C , 15-H ) :   0.9598 
B(  4-C , 16-H ) :   0.9600 

-------
TIMINGS
-------

Total SCF time: 0 days 0 hours 0 min 19 sec 

Total time                  ....      19.082 sec
Sum of individual times     ....      19.060 sec  ( 99.9%)

SCF preparation             ....       0.032 sec  (  0.2%)
Fock matrix formation       ....      18.972 sec  ( 99.4%)
  Startup                   ....       0.002 sec  (  0.0% of F)
  Split-RI-J                ....       1.035 sec  (  5.5% of F)
  Chain of spheres X        ....      14.947 sec  ( 78.8% of F)
  XC integration            ....       2.971 sec  ( 15.7% of F)
    Basis function eval.    ....       1.228 sec  ( 41.3% of XC)
    Density eval.           ....       0.556 sec  ( 18.7% of XC)
    XC-Functional eval.     ....       0.131 sec  (  4.4% of XC)
    XC-Potential eval.      ....       0.909 sec  ( 30.6% of XC)
Diagonalization             ....       0.000 sec  (  0.0%)
Density matrix formation    ....       0.006 sec  (  0.0%)
Total Energy calculation    ....       0.005 sec  (  0.0%)
Population analysis         ....       0.004 sec  (  0.0%)
Orbital Transformation      ....       0.004 sec  (  0.0%)
Orbital Orthonormalization  ....       0.000 sec  (  0.0%)
DIIS solution               ....       0.022 sec  (  0.1%)
SOSCF solution              ....       0.016 sec  (  0.1%)
Finished LeanSCF after  19.1 sec

Maximum memory used throughout the entire LEANSCF-calculation: 18.8 MB

------------------------------------------------------------------------------
                         ORCA PROPERTY INTEGRAL CALCULATIONS
------------------------------------------------------------------------------

GBWName                                   ... opt.gbw
Number of atoms                           ...     17
Number of basis functions                 ...    154
Max core memory                           ...   1024 MB

Dipole integrals                          ... YES
Quadrupole integrals                      ...  NO
Linear momentum integrals                 ...  NO
Angular momentum integrals                ...  NO
Higher moments length integrals           ...  NO
Higher moments velocity integrals         ...  NO
Kinetic energy integrals                  ...  NO
GIAO right hand sides                     ...  NO
GIAO dipole derivative integrals          ...  NO
SOC integrals                             ...  NO
EPR diamagnetic integrals (GIAO)          ...  NO
EPR gauge integrals                       ...  NO
Field gradient integrals                  ...  NO (   0 nuclei)
Spin-dipole/Fermi contact integrals       ...  NO (   0 nuclei)
Contact density integrals                 ...  NO (   0 nuclei)
Nucleus-orbit integrals                   ...  NO (   0 nuclei)
Geometric perturbations                   ...  NO (  17 nuclei)

Choice of electric origin   ... Center of mass
Position of electric origin ... (  0.0000, -0.0000, -0.0000) 
Choice of magnetic origin   ... GIAO
Position of magnetic origin ... (  0.0000,  0.0000,  0.0000) 

Calculating integrals                     ... Electric Dipole (Length)     done (  0.0 sec)

Property integrals calculated in   0.0 sec

Maximum memory used throughout the entire PROPINT-calculation: 10.8 MB


-------------------------------------------------------------------------------
                          DFT DISPERSION CORRECTION                            
                                                                               
                                DFTD4 V3.4.0                                   
-------------------------------------------------------------------------------
The B3LYP functional is recognized
Active option DFTDOPT                   ...         5   

-------------------------   ----------------
Dispersion correction           -0.021007236
-------------------------   ----------------


-------------------------   --------------------
FINAL SINGLE POINT ENERGY      -449.046584849640
-------------------------   --------------------

------------------------------------------------------------------------------
                         ORCA SCF GRADIENT CALCULATION
------------------------------------------------------------------------------

Nuc. rep. gradient        (SHARK) ... done (  0.0 sec)
HCore & Overlap gradient  (SHARK) ... done (  0.1 sec)
Split-RIJ-J gradient      (SHARK) ... done (  0.4 sec)
COSX-gradient                     ... done ( 10.9 sec)
XC gradient                       ... done (  2.3 sec)
Dispersion correction             ... done (  0.0 sec)

-------------------
DISPERSION GRADIENT
-------------------

   1   Si  :    0.000000000   -0.000000000    0.000000000
   2   C   :    0.000693027    0.000056988    0.000511694
   3   C   :   -0.000707677   -0.000100834    0.000484138
   4   C   :   -0.000072107    0.000721725   -0.000468273
   5   C   :    0.000086757   -0.000677879   -0.000527560
   6   H   :    0.000174115    0.000023064    0.000123569
   7   H   :    0.000166476    0.000013177    0.000135017
   8   H   :    0.000176025    0.000006241    0.000122856
   9   H   :   -0.000179548   -0.000016785    0.000116611
  10   H   :   -0.000170351   -0.000024775    0.000128390
  11   H   :   -0.000177638   -0.000033607    0.000115899
  12   H   :   -0.000009876    0.000182913   -0.000112083
  13   H   :   -0.000026712    0.000181016   -0.000112415
  14   H   :   -0.000017163    0.000174080   -0.000124575
  15   H   :    0.000030235   -0.000170472   -0.000127053
  16   H   :    0.000013399   -0.000172369   -0.000127384
  17   H   :    0.000021039   -0.000162482   -0.000138832

Difference to translation invariance:
           :    0.0000000000    0.0000000000   -0.0000000000

Difference to rotation invariance:
           :   -0.0000000000    0.0000000000    0.0000000000

Norm of the Dispersion gradient    ...    0.0018801246
RMS gradient                       ...    0.0002632701
MAX gradient                       ...    0.0007217247

------------------
CARTESIAN GRADIENT
------------------

   1   Si  :    0.000008885   -0.000001435   -0.000008357
   2   C   :   -0.006354085   -0.000522213   -0.004688057
   3   C   :    0.006505191    0.000929802   -0.004464459
   4   C   :    0.000667787   -0.006623074    0.004292719
   5   C   :   -0.000792216    0.006239043    0.004875013
   6   H   :   -0.002754711   -0.008526794    0.002701795
   7   H   :    0.004497219    0.000855382   -0.008174453
   8   H   :   -0.004590642    0.007437292    0.003366891
   9   H   :    0.004481014   -0.007711973    0.002853442
  10   H   :   -0.004255221   -0.000130184   -0.008352531
  11   H   :    0.002672938    0.008255291    0.003528784
  12   H   :   -0.007534371   -0.004390011   -0.003415724
  13   H   :    0.008439999   -0.002586592   -0.003106862
  14   H   :   -0.000620304    0.004008384    0.008453525
  15   H   :   -0.008358650    0.002841251   -0.003129678
  16   H   :    0.007617923    0.004661259   -0.002813460
  17   H   :    0.000369243   -0.004735427    0.008081410

Difference to translation invariance:
           :    0.0000000000    0.0000000000    0.0000000000

Difference to rotation invariance:
           :   -0.0000686523    0.0000241094    0.0000439719

Norm of the Cartesian gradient     ...    0.0361206355
RMS gradient                       ...    0.0050579007
MAX gradient                       ...    0.0085267940

-------
TIMINGS
-------

Total SCF gradient time     ....       13.756 sec

Densities                   ....       0.000 sec  (  0.0%)
One electron gradient       ....       0.067 sec  (  0.5%)
RI-J Coulomb gradient       ....       0.416 sec  (  3.0%)
COSX gradient               ....      10.921 sec  ( 79.4%)
XC gradient                 ....       2.332 sec  ( 17.0%)

Maximum memory used throughout the entire SCFGRAD-calculation: 30.5 MB
------------------------------------------------------------------------------
                         ORCA GEOMETRY RELAXATION STEP
------------------------------------------------------------------------------

Reading the OPT-File                    .... done
Getting information on internals        .... done
Copying old internal coords+grads       .... done
Making the new internal coordinates     .... (2022 redundants) done
Validating the new internal coordinates .... (2022 redundants) done
Calculating the B-matrix                .... done
Calculating the G,G- and P matrices     .... done
Transforming gradient to internals      .... done
Projecting the internal gradient        .... done
Number of atoms                         ....  17
Number of internal coordinates          ....  70
Current Energy                          ....  -449.046584850 Eh
Current gradient norm                   ....     0.036120636 Eh/bohr
Maximum allowed component of the step   ....  0.300
Current trust radius                    ....  0.300
Evaluating the initial hessian          ....  (Almloef) done
Projecting the Hessian                  .... done
Forming the augmented Hessian           .... done
Diagonalizing the augmented Hessian     .... done
Last element of RFO vector              ....  0.993093678
Lowest eigenvalues of augmented Hessian:
 -0.005004502  0.003931823  0.003931830  0.003931838  0.003931846
Length of the computed step             ....  0.118140024
The final length of the internal step   ....  0.118140024
Converting the step to Cartesian space:
 Initial RMS(Int)=    0.0141204337
Transforming coordinates:
 Iter   0:  RMS(Cart)=    0.0268925974 RMS(Int)=    1.3007971748
done
Storing new coordinates                 .... done

                                .--------------------.
          ----------------------|Geometry convergence|-------------------------
          Item                value                   Tolerance       Converged
          ---------------------------------------------------------------------
          RMS gradient        0.0051182601            0.0001000000      NO
          MAX gradient        0.0114739063            0.0003000000      NO
          RMS step            0.0141204337            0.0020000000      NO
          MAX step            0.0246130179            0.0040000000      NO
          ........................................................
          Max(Bonds)      0.0130      Max(Angles)    0.78
          Max(Dihed)        0.02      Max(Improp)    0.00
          ---------------------------------------------------------------------

The optimization has not yet converged - more geometry cycles are needed


    ---------------------------------------------------------------------------
                         Redundant Internal Coordinates
                            (Angstroem and degrees)

        Definition                    Value    dE/dq     Step     New-Value
    ----------------------------------------------------------------------------
     1. B(C   1,Si  0)                1.8666 -0.011463  0.0127    1.8793   
     2. B(C   2,Si  0)                1.8666 -0.011474  0.0127    1.8794   
     3. B(C   3,Si  0)                1.8666 -0.011473  0.0127    1.8794   
     4. B(C   4,Si  0)                1.8666 -0.011474  0.0127    1.8794   
     5. B(H   5,C   1)                1.1093  0.008366 -0.0130    1.0963   
     6. B(H   6,C   1)                1.1093  0.008371 -0.0130    1.0963   
     7. B(H   7,C   1)                1.1093  0.008359 -0.0130    1.0963   
     8. B(H   8,C   2)                1.1093  0.008370 -0.0130    1.0963   
     9. B(H   9,C   2)                1.1093  0.008377 -0.0130    1.0963   
    10. B(H  10,C   2)                1.1093  0.008371 -0.0130    1.0963   
    11. B(H  11,C   3)                1.1093  0.008363 -0.0130    1.0963   
    12. B(H  12,C   3)                1.1093  0.008360 -0.0130    1.0963   
    13. B(H  13,C   3)                1.1093  0.008378 -0.0130    1.0963   
    14. B(H  14,C   4)                1.1093  0.008379 -0.0130    1.0963   
    15. B(H  15,C   4)                1.1093  0.008368 -0.0130    1.0963   
    16. B(H  16,C   4)                1.1093  0.008373 -0.0130    1.0963   
    17. A(C   3,Si  0,C   4)          109.47  0.000006   -0.00    109.47   
    18. A(C   1,Si  0,C   4)          109.47  0.000006   -0.00    109.47   
    19. A(C   1,Si  0,C   2)          109.47  0.000001    0.00    109.47   
    20. A(C   2,Si  0,C   4)          109.47 -0.000004    0.00    109.47   
    21. A(C   2,Si  0,C   3)          109.47 -0.000007    0.00    109.47   
    22. A(C   1,Si  0,C   3)          109.47 -0.000002   -0.00    109.47   
    23. A(Si  0,C   1,H   5)          109.45 -0.004400    0.77    110.22   
    24. A(H   6,C   1,H   7)          109.49  0.004423   -0.78    108.72   
    25. A(H   5,C   1,H   7)          109.49  0.004408   -0.77    108.72   
    26. A(Si  0,C   1,H   7)          109.45 -0.004439    0.78    110.23   
    27. A(H   5,C   1,H   6)          109.49  0.004404   -0.77    108.72   
    28. A(Si  0,C   1,H   6)          109.45 -0.004406    0.77    110.22   
    29. A(Si  0,C   2,H   9)          109.45 -0.004416    0.78    110.22   
    30. A(Si  0,C   2,H   8)          109.45 -0.004405    0.77    110.22   
    31. A(H   8,C   2,H   9)          109.49  0.004410   -0.78    108.72   
    32. A(H   9,C   2,H  10)          109.49  0.004419   -0.78    108.72   
    33. A(H   8,C   2,H  10)          109.49  0.004391   -0.77    108.72   
    34. A(Si  0,C   2,H  10)          109.45 -0.004410    0.77    110.22   
    35. A(H  12,C   3,H  13)          109.49  0.004417   -0.78    108.72   
    36. A(H  11,C   3,H  13)          109.49  0.004414   -0.78    108.72   
    37. A(Si  0,C   3,H  13)          109.45 -0.004420    0.78    110.22   
    38. A(H  11,C   3,H  12)          109.49  0.004409   -0.77    108.72   
    39. A(Si  0,C   3,H  12)          109.45 -0.004408    0.77    110.22   
    40. A(Si  0,C   3,H  11)          109.45 -0.004422    0.78    110.23   
    41. A(H  15,C   4,H  16)          109.49  0.004416   -0.78    108.72   
    42. A(H  14,C   4,H  16)          109.49  0.004401   -0.77    108.72   
    43. A(Si  0,C   4,H  16)          109.45 -0.004422    0.78    110.22   
    44. A(H  14,C   4,H  15)          109.49  0.004389   -0.77    108.72   
    45. A(Si  0,C   4,H  15)          109.45 -0.004408    0.77    110.22   
    46. A(Si  0,C   4,H  14)          109.45 -0.004387    0.77    110.22   
    47. D(H   6,C   1,Si  0,C   4)     60.00  0.000007   -0.01     59.99   
    48. D(H   6,C   1,Si  0,C   2)    180.00  0.000006   -0.01    179.99   
    49. D(H   5,C   1,Si  0,C   4)    -60.00  0.000002   -0.01    -60.01   
    50. D(H   5,C   1,Si  0,C   2)     60.00  0.000001   -0.01     59.99   
    51. D(H   6,C   1,Si  0,C   3)    -60.00 -0.000002   -0.01    -60.01   
    52. D(H   5,C   1,Si  0,C   3)    180.00 -0.000008   -0.00    180.00   
    53. D(H   8,C   2,Si  0,C   1)    -60.00 -0.000002    0.00    -60.00   
    54. D(H   9,C   2,Si  0,C   4)    -60.00 -0.000001    0.00    -60.00   
    55. D(H   9,C   2,Si  0,C   3)     60.00 -0.000000    0.00     60.00   
    56. D(H   9,C   2,Si  0,C   1)    180.00 -0.000006    0.01    180.01   
    57. D(H   8,C   2,Si  0,C   4)     60.00  0.000003    0.00     60.00   
    58. D(H   8,C   2,Si  0,C   3)    180.00  0.000003    0.00    180.00   
    59. D(H  11,C   3,Si  0,C   4)     60.00 -0.000005   -0.01     59.99   
    60. D(H  11,C   3,Si  0,C   2)    -60.00  0.000001   -0.01    -60.01   
    61. D(H  11,C   3,Si  0,C   1)   -180.00  0.000005   -0.01   -180.01   
    62. D(H  12,C   3,Si  0,C   4)    -60.00 -0.000003   -0.01    -60.01   
    63. D(H  12,C   3,Si  0,C   2)    180.00  0.000003   -0.01    179.99   
    64. D(H  12,C   3,Si  0,C   1)     60.00  0.000007   -0.01     59.99   
    65. D(H  15,C   4,Si  0,C   3)     60.00 -0.000002    0.02     60.02   
    66. D(H  15,C   4,Si  0,C   2)   -180.00 -0.000009    0.02   -179.98   
    67. D(H  15,C   4,Si  0,C   1)    -60.00 -0.000007    0.02    -59.98   
    68. D(H  14,C   4,Si  0,C   3)    -60.00  0.000004    0.01    -59.99   
    69. D(H  14,C   4,Si  0,C   2)     60.00 -0.000003    0.02     60.02   
    70. D(H  14,C   4,Si  0,C   1)   -180.00 -0.000001    0.02   -179.98   
    ----------------------------------------------------------------------------

Geometry step timings:
Preparation and reading OPT file:      0.001 s (18.752 %)
Internal coordinates            :      0.000 s (12.453 %)
B/P matrices and projection     :      0.001 s (18.403 %)
Hessian update/contruction      :      0.001 s (20.726 %)
Making the step                 :      0.000 s (11.379 %)
Converting the step to Cartesian:      0.000 s ( 0.987 %)
Storing new data                :      0.000 s ( 1.742 %)
Checking convergence            :      0.000 s ( 0.087 %)
Final printing                  :      0.001 s (15.094 %)
Total time                      :      0.003 s

Time for energy+gradient        :     34.100 s
Time for complete geometry iter :     34.165 s

         *************************************************************
         *                GEOMETRY OPTIMIZATION CYCLE   2            *
         *************************************************************
---------------------------------
CARTESIAN COORDINATES (ANGSTROEM)
---------------------------------
  Si    -0.000042    0.000017    0.000019
  C      1.508595    0.124050    1.113820
  C     -1.540494   -0.219532    1.053950
  C     -0.156997    1.571067   -1.019356
  C      0.188862   -1.475586   -1.148403
  H      1.611830   -0.787097    1.714681
  H      2.415150    0.252355    0.510860
  H      1.411293    0.981869    1.789530
  H     -1.461704   -1.133451    1.654293
  H     -2.428818   -0.293416    0.415775
  H     -1.662627    0.635484    1.729150
  H     -1.034078    1.511679   -1.674411
  H      0.736235    1.711247   -1.639346
  H     -0.268044    2.440487   -0.360857
  H     -0.685387   -1.559304   -1.804541
  H      1.084990   -1.360175   -1.769297
  H      0.281235   -2.399695   -0.565868

----------------------------
CARTESIAN COORDINATES (A.U.)
----------------------------
  NO LB      ZA    FRAG     MASS         X           Y           Z
   0 Si   14.0000    0    28.086   -0.000079    0.000033    0.000036
   1 C     6.0000    0    12.011    2.850831    0.234421    2.104814
   2 C     6.0000    0    12.011   -2.911112   -0.414856    1.991677
   3 C     6.0000    0    12.011   -0.296681    2.968887   -1.926303
   4 C     6.0000    0    12.011    0.356898   -2.788453   -2.170168
   5 H     1.0000    0     1.008    3.045918   -1.487399    3.240278
   6 H     1.0000    0     1.008    4.563972    0.476882    0.965386
   7 H     1.0000    0     1.008    2.666957    1.855463    3.381722
   8 H     1.0000    0     1.008   -2.762220   -2.141912    3.126161
   9 H     1.0000    0     1.008   -4.589801   -0.554476    0.785701
  10 H     1.0000    0     1.008   -3.141910    1.200890    3.267621
  11 H     1.0000    0     1.008   -1.954124    2.856659   -3.164178
  12 H     1.0000    0     1.008    1.391283    3.233789   -3.097915
  13 H     1.0000    0     1.008   -0.506529    4.611851   -0.681920
  14 H     1.0000    0     1.008   -1.295193   -2.946657   -3.410089
  15 H     1.0000    0     1.008    2.050334   -2.570358   -3.343487
  16 H     1.0000    0     1.008    0.531458   -4.534765   -1.069335

--------------------------------
INTERNAL COORDINATES (ANGSTROEM)
--------------------------------
 Si     0   0   0     0.000000000000     0.00000000     0.00000000
 C      1   0   0     1.879340401264     0.00000000     0.00000000
 C      1   2   0     1.879352097390   109.47175437     0.00000000
 C      1   2   3     1.879350543686   109.47110238   120.00387693
 C      1   2   3     1.879351868461   109.46838446   240.00000962
 H      2   1   3     1.096303631605   110.21615418    59.99298799
 H      2   1   3     1.096295653883   110.21710531   179.99075672
 H      2   1   3     1.096314338502   110.22300137   299.99028196
 H      3   1   2     1.096297325981   110.21690589   300.00392587
 H      3   1   2     1.096287359562   110.21864122   180.00561316
 H      3   1   2     1.096296018553   110.21805581    60.00760953
 H      4   1   2     1.096310156130   110.21988047   179.98940011
 H      4   1   2     1.096312707687   110.21772100    59.98794164
 H      4   1   2     1.096285442974   110.21937995   299.98973300
 H      5   1   2     1.096283174262   110.21453155   180.01757513
 H      5   1   2     1.096300083050   110.21779895   300.02123566
 H      5   1   2     1.096292804489   110.21911906    60.01873491

---------------------------
INTERNAL COORDINATES (A.U.)
---------------------------
 Si     0   0   0     0.000000000000     0.00000000     0.00000000
 C      1   0   0     3.551438670803     0.00000000     0.00000000
 C      1   2   0     3.551460773278   109.47175437     0.00000000
 C      1   2   3     3.551457837202   109.47110238   120.00387693
 C      1   2   3     3.551460340664   109.46838446   240.00000962
 H      2   1   3     2.071713623357   110.21615418    59.99298799
 H      2   1   3     2.071698547647   110.21710531   179.99075672
 H      2   1   3     2.071733856460   110.22300137   299.99028196
 H      3   1   2     2.071701707454   110.21690589   300.00392587
 H      3   1   2     2.071682873653   110.21864122   180.00561316
 H      3   1   2     2.071699236774   110.21805581    60.00760953
 H      4   1   2     2.071725952922   110.21988047   179.98940011
 H      4   1   2     2.071730774667   110.21772100    59.98794164
 H      4   1   2     2.071679251825   110.21937995   299.98973300
 H      5   1   2     2.071674964581   110.21453155   180.01757513
 H      5   1   2     2.071706917559   110.21779895   300.02123566
 H      5   1   2     2.071693163072   110.21911906    60.01873491

------------------------------------------------------------------------------
                   ___                                                        
                  /   \      - P O W E R E D   B Y -                         
                 /     \                                                     
                 |  |  |   _    _      __       _____    __    __             
                 |  |  |  | |  | |    /  \     |  _  \  |  |  /  |          
                  \  \/   | |  | |   /    \    | | | |  |  | /  /          
                 / \  \   | |__| |  /  /\  \   | |_| |  |  |/  /          
                |  |  |   |  __  | /  /__\  \  |    /   |      \           
                |  |  |   | |  | | |   __   |  |    \   |  |\   \          
                \     /   | |  | | |  |  |  |  | |\  \  |  | \   \       
                 \___/    |_|  |_| |__|  |__|  |_| \__\ |__|  \__/        
                                                                              
                      - O R C A' S   B I G   F R I E N D -                    
                                      &                                       
                       - I N T E G R A L  F E E D E R -                       
                                                                              
 v1 FN, 2020, v2 2021, v3 2022-2024                                           
------------------------------------------------------------------------------


----------------------
SHARK INTEGRAL PACKAGE
----------------------

Number of atoms                             ...     17
Number of basis functions                   ...    154
Number of shells                            ...     78
Maximum angular momentum                    ...      2
Integral batch strategy                     ... SHARK/LIBINT Hybrid
RI-J (if used) integral strategy            ... SPLIT-RIJ (Revised 2003 algorithm where possible)
Printlevel                                  ...      1
[...]
     49      -0.240705   0.343111  -0.056204  -0.388592  -0.009901   0.189943
     50       0.155656  -0.206178   0.034667   0.233666   0.005517  -0.113176
                 48         49         50    
      0      -0.000592   0.000122   0.000954
      1       0.000002   0.001120  -0.000142
      2       0.000965   0.000072   0.000588
      3      -0.032187  -0.002051   0.002883
      4      -0.000732   0.053909  -0.009986
      5       0.043591  -0.003199  -0.002746
      6       0.013182  -0.002055   0.029124
      7       0.006533   0.056728  -0.010250
      8       0.020612   0.008801   0.040275
      9      -0.031252   0.010355   0.043627
     10       0.019885   0.018413   0.014215
     11       0.035312   0.026640   0.015184
     12      -0.027899   0.010278   0.050513
     13      -0.025098   0.019125  -0.012928
     14       0.027590  -0.022774   0.024923
     15      -0.029266   0.047992  -0.007740
     16       0.171123  -0.361335   0.057922
     17      -0.105886   0.250005  -0.041408
     18       0.403363  -0.052654  -0.025701
     19       0.057468   0.004230  -0.005817
     20      -0.254137   0.032729   0.015554
     21       0.013889   0.028441  -0.006558
     22      -0.219798  -0.293576   0.068000
     23      -0.166441  -0.244890   0.055197
     24      -0.000720   0.023439  -0.012188
     25       0.059380  -0.330804   0.258972
     26      -0.034601   0.230977  -0.165705
     27      -0.176951  -0.059394  -0.363573
     28      -0.013923   0.007154  -0.033795
     29      -0.121106  -0.038881  -0.247697
     30       0.023576   0.059842   0.022202
     31      -0.123590  -0.360928  -0.101807
     32      -0.096345  -0.297706  -0.071239
     33       0.013519  -0.188972  -0.336841
     34       0.005509  -0.006092  -0.014032
     35       0.022784  -0.139230  -0.259809
     36       0.330006   0.032198  -0.215034
     37       0.063640   0.008798  -0.036110
     38      -0.229986  -0.015124   0.161302
     39       0.033402   0.032268   0.025069
     40      -0.306743  -0.229238  -0.118881
     41      -0.220439  -0.164347  -0.086365
     42       0.050675   0.029722  -0.404564
     43       0.000613   0.006778  -0.049520
     44       0.049025   0.015853  -0.313025
     45       0.319575  -0.178326  -0.192425
     46       0.030651  -0.016438  -0.025572
     47      -0.223286   0.121854   0.148224
     48      -0.033304   0.025098  -0.012367
     49       0.268624  -0.225364   0.230393
     50      -0.161030   0.133939  -0.136493


-----------
IR SPECTRUM
-----------

 Mode   freq       eps      Int      T**2         TX        TY        TZ
       cm**-1   L/(mol*cm) km/mol    a.u.
----------------------------------------------------------------------------
  6:    138.36   0.000000    0.00  0.000000  ( 0.000048  0.000071 -0.000091)
  7:    160.75   0.000000    0.00  0.000000  ( 0.000033  0.000008 -0.000022)
  8:    161.50   0.000000    0.00  0.000000  (-0.000097 -0.000000 -0.000110)
  9:    162.24   0.000000    0.00  0.000000  (-0.000056 -0.000042 -0.000007)
 10:    183.04   0.000000    0.00  0.000000  ( 0.000162 -0.000005  0.000042)
 11:    183.13   0.000000    0.00  0.000000  ( 0.000039  0.000130 -0.000139)
 12:    227.81   0.000804    4.06  0.001101  (-0.002628  0.019714  0.026568)
 13:    228.01   0.000803    4.06  0.001099  (-0.028119  0.012671 -0.012147)
 14:    228.14   0.000804    4.06  0.001100  (-0.017361 -0.023467  0.015741)
 15:    576.38   0.000000    0.00  0.000000  (-0.000017  0.000031  0.000015)
 16:    688.95   0.000021    0.11  0.000010  (-0.002808 -0.000591 -0.001165)
 17:    689.00   0.000020    0.10  0.000009  (-0.002188  0.001988 -0.000697)
 18:    689.21   0.000012    0.06  0.000006  ( 0.002135 -0.000791 -0.000575)
 19:    690.55   0.003311   16.73  0.001496  (-0.009973 -0.025444 -0.027379)
 20:    690.62   0.003301   16.68  0.001492  (-0.018888  0.027887 -0.018899)
 21:    690.68   0.003307   16.71  0.001494  ( 0.032111  0.008631 -0.019711)
 22:    836.26   0.000000    0.00  0.000000  (-0.000007 -0.000016 -0.000030)
 23:    836.43   0.000000    0.00  0.000000  (-0.000135 -0.000149 -0.000237)
 24:    892.85   0.024318  122.89  0.008499  ( 0.002070 -0.060233 -0.069764)
 25:    893.02   0.024289  122.75  0.008488  (-0.074206  0.040210 -0.036938)
 26:    893.06   0.024304  122.82  0.008493  (-0.054564 -0.056972  0.047640)
 27:   1295.52   0.008123   41.05  0.001957  ( 0.034359  0.018541 -0.020794)
 28:   1295.54   0.008121   41.04  0.001956  ( 0.027819 -0.021265  0.027017)
 29:   1295.63   0.008107   40.97  0.001953  (-0.001333  0.034050  0.028133)
 30:   1309.43   0.000000    0.00  0.000000  (-0.000054  0.000166  0.000129)
 31:   1460.27   0.000000    0.00  0.000000  ( 0.000011 -0.000102 -0.000021)
 32:   1460.33   0.000000    0.00  0.000000  ( 0.000127  0.000060 -0.000001)
 33:   1460.46   0.000000    0.00  0.000000  (-0.000078  0.000119  0.000018)
 34:   1464.33   0.000000    0.00  0.000000  ( 0.000033  0.000006 -0.000038)
 35:   1464.53   0.000000    0.00  0.000000  ( 0.000029  0.000101  0.000006)
 36:   1479.97   0.002135   10.79  0.000450  (-0.001168  0.003432  0.020904)
 37:   1480.10   0.002132   10.77  0.000450  ( 0.001618  0.020871 -0.003363)
 38:   1480.14   0.002131   10.77  0.000449  (-0.021105  0.001407 -0.001398)
 39:   3025.07   0.003368   17.02  0.000347  (-0.014712 -0.004052 -0.010706)
 40:   3025.08   0.003353   16.95  0.000346  (-0.005248  0.017838  0.000419)
 41:   3025.13   0.003386   17.11  0.000349  ( 0.010102  0.003357 -0.015363)
 42:   3027.65   0.000001    0.00  0.000000  ( 0.000291  0.000035  0.000008)
 43:   3100.54   0.000001    0.00  0.000000  (-0.000062 -0.000247 -0.000120)
 44:   3100.62   0.000002    0.01  0.000000  (-0.000383 -0.000256 -0.000167)
 45:   3101.24   0.000010    0.05  0.000001  (-0.000145  0.001009 -0.000056)
 46:   3101.25   0.000006    0.03  0.000001  ( 0.000645  0.000074 -0.000466)
 47:   3101.31   0.000017    0.08  0.000002  (-0.001205  0.000458  0.000154)
 48:   3103.55   0.009460   47.80  0.000951  (-0.016207  0.000073  0.026239)
 49:   3103.68   0.009524   48.13  0.000958  ( 0.003326  0.030706  0.001933)
 50:   3103.75   0.009493   47.97  0.000954  ( 0.026139 -0.003841  0.016016)

* The epsilon (eps) is given for a Dirac delta lineshape.
** The dipole moment derivative (T) already includes vibrational overlap.

The first frequency considered to be a vibration is 6
The total number of vibrations considered is 45


--------------------------
THERMOCHEMISTRY AT 298.15K
--------------------------

Temperature         ...   298.15 K
Pressure            ...     1.00 atm
Total Mass          ...    88.23 AMU
Quasi RRHO          ...     True
Cut-Off Frequency   ...     1.00 cm^-1

Throughout the following assumptions are being made:
  (1) The electronic state is orbitally nondegenerate
  (2) There are no thermally accessible electronically excited states
  (3) Hindered rotations indicated by low frequency modes are not
      treated as such but are treated as vibrations and this may
      cause some error
  (4) All equations used are the standard statistical mechanics
      equations for an ideal gas
  (5) All vibrations are strictly harmonic

freq.     138.36  E(vib)   ...       0.42 
freq.     160.75  E(vib)   ...       0.39 
freq.     161.50  E(vib)   ...       0.39 
freq.     162.24  E(vib)   ...       0.39 
freq.     183.04  E(vib)   ...       0.37 
freq.     183.13  E(vib)   ...       0.37 
freq.     227.81  E(vib)   ...       0.33 
freq.     228.01  E(vib)   ...       0.33 
freq.     228.14  E(vib)   ...       0.33 
freq.     576.38  E(vib)   ...       0.11 
freq.     688.95  E(vib)   ...       0.07 
freq.     689.00  E(vib)   ...       0.07 
freq.     689.21  E(vib)   ...       0.07 
freq.     690.55  E(vib)   ...       0.07 
freq.     690.62  E(vib)   ...       0.07 
freq.     690.68  E(vib)   ...       0.07 
freq.     836.26  E(vib)   ...       0.04 
freq.     836.43  E(vib)   ...       0.04 
freq.     892.85  E(vib)   ...       0.03 
freq.     893.02  E(vib)   ...       0.03 
freq.     893.06  E(vib)   ...       0.03 
freq.    1295.52  E(vib)   ...       0.01 
freq.    1295.54  E(vib)   ...       0.01 
freq.    1295.63  E(vib)   ...       0.01 
freq.    1309.43  E(vib)   ...       0.01 
freq.    1460.27  E(vib)   ...       0.00 
freq.    1460.33  E(vib)   ...       0.00 
freq.    1460.46  E(vib)   ...       0.00 
freq.    1464.33  E(vib)   ...       0.00 
freq.    1464.53  E(vib)   ...       0.00 
freq.    1479.97  E(vib)   ...       0.00 
freq.    1480.10  E(vib)   ...       0.00 
freq.    1480.14  E(vib)   ...       0.00 
freq.    3025.07  E(vib)   ...       0.00 
freq.    3025.08  E(vib)   ...       0.00 
freq.    3025.13  E(vib)   ...       0.00 
freq.    3027.65  E(vib)   ...       0.00 
freq.    3100.54  E(vib)   ...       0.00 
freq.    3100.62  E(vib)   ...       0.00 
freq.    3101.24  E(vib)   ...       0.00 
freq.    3101.25  E(vib)   ...       0.00 
freq.    3101.31  E(vib)   ...       0.00 
freq.    3103.55  E(vib)   ...       0.00 
freq.    3103.68  E(vib)   ...       0.00 
freq.    3103.75  E(vib)   ...       0.00 

------------
INNER ENERGY
------------

The inner energy is: U= E(el) + E(ZPE) + E(vib) + E(rot) + E(trans)
    E(el)   - is the total energy from the electronic structure calculation
              = E(kin-el) + E(nuc-el) + E(el-el) + E(nuc-nuc)
    E(ZPE)  - the the zero temperature vibrational energy from the frequency calculation
    E(vib)  - the the finite temperature correction to E(ZPE) due to population
              of excited vibrational states
    E(rot)  - is the rotational thermal energy
    E(trans)- is the translational thermal energy

Summary of contributions to the inner energy U:
Electronic energy                ...   -449.05054395 Eh
Zero point energy                ...      0.14718136 Eh      92.36 kcal/mol
Thermal vibrational correction   ...      0.00653229 Eh       4.10 kcal/mol
Thermal rotational correction    ...      0.00141627 Eh       0.89 kcal/mol
Thermal translational correction ...      0.00141627 Eh       0.89 kcal/mol
-----------------------------------------------------------------------
Total thermal energy                   -448.89399775 Eh


Summary of corrections to the electronic energy:
(perhaps to be used in another calculation)
Total thermal correction                  0.00936484 Eh       5.88 kcal/mol
Non-thermal (ZPE) correction              0.14718136 Eh      92.36 kcal/mol
-----------------------------------------------------------------------
Total correction                          0.15654620 Eh      98.23 kcal/mol


--------
ENTHALPY
--------

The enthalpy is H = U + kB*T
                kB is Boltzmann's constant
Total thermal energy              ...   -448.89399775 Eh 
Thermal Enthalpy correction       ...      0.00094421 Eh       0.59 kcal/mol
-----------------------------------------------------------------------
Total Enthalpy                    ...   -448.89305354 Eh


Note: Only C1 symmetry has been detected, increase convergence thresholds 
      if your molecule has a higher symmetry. Symmetry factor of 1.0 is   
      used for the rotational entropy correction. 
 

Note: Rotational entropy computed according to Herzberg 
Infrared and Raman Spectra, Chapter V,1, Van Nostrand Reinhold, 1945 
Point Group:  C1, Symmetry Number:   1  
Rotational constants in cm-1:     0.101891     0.101882     0.101875 

Vibrational entropy computed according to the QRRHO of S. Grimme
Chem.Eur.J. 2012 18 9955 using a reference frequency of 100.0 cm-1


-------
ENTROPY
-------

The entropy contributions are T*S = T*(S(el)+S(vib)+S(rot)+S(trans))
     S(el)   - electronic entropy
     S(vib)  - vibrational entropy
     S(rot)  - rotational entropy
     S(trans)- translational entropy
The entropies will be listed as multiplied by the temperature to get
units of energy

Electronic entropy                ...      0.00000000 Eh      0.00 kcal/mol
Vibrational entropy               ...      0.01140293 Eh      7.16 kcal/mol
Rotational entropy                ...      0.01274548 Eh      8.00 kcal/mol
Translational entropy             ...      0.01869383 Eh     11.73 kcal/mol
-----------------------------------------------------------------------
Final entropy term                ...      0.04284224 Eh     26.88 kcal/mol

In case the symmetry of your molecule has not been determined correctly
or in case you have a reason to use a different symmetry number we print 
out the resulting rotational entropy values for sn=1,12:

 non-linear molecules -----------------------------------
|  sn= 1 | S(rot)=       0.01274548 Eh      8.00 kcal/mol|
|  sn= 2 | S(rot)=       0.01209102 Eh      7.59 kcal/mol|
|  sn= 3 | S(rot)=       0.01170819 Eh      7.35 kcal/mol|
|  sn= 4 | S(rot)=       0.01143657 Eh      7.18 kcal/mol|
|  sn= 5 | S(rot)=       0.01122588 Eh      7.04 kcal/mol|
|  sn= 6 | S(rot)=       0.01105373 Eh      6.94 kcal/mol|
|  sn= 7 | S(rot)=       0.01090819 Eh      6.84 kcal/mol|
|  sn= 8 | S(rot)=       0.01078211 Eh      6.77 kcal/mol|
|  sn= 9 | S(rot)=       0.01067090 Eh      6.70 kcal/mol|
|  sn=10 | S(rot)=       0.01057142 Eh      6.63 kcal/mol|
|  sn=11 | S(rot)=       0.01048143 Eh      6.58 kcal/mol|
|  sn=12 | S(rot)=       0.01039928 Eh      6.53 kcal/mol|
 linear molecules ---------------------------------------
|  Dinfh | S(rot)=       0.00748233 Eh      4.70 kcal/mol|
|  Cinfv | S(rot)=       0.00813678 Eh      5.11 kcal/mol|
 --------------------------------------------------------


-------------------
GIBBS FREE ENERGY
-------------------

The Gibbs free energy is G = H - T*S

Total enthalpy                    ...   -448.89305354 Eh 
Total entropy correction          ...     -0.04284224 Eh    -26.88 kcal/mol
-----------------------------------------------------------------------
Final Gibbs free energy         ...   -448.93589578 Eh

For completeness - the Gibbs free energy minus the electronic energy
G-E(el)                           ...      0.11464816 Eh     71.94 kcal/mol


Maximum memory used throughout the entire PROP-calculation: 51.7 MB

--------------------------------
SUGGESTED CITATIONS FOR THIS RUN
--------------------------------

Below you find a list of papers that are relevant to this ORCA run
We neither can nor want to force you to cite these papers, but we appreciate if you do
You receive ORCA, which is the product of decades of hard work by many enthusiastic individuals, for free
The only thing we kindly ask in return is that you cite our papers,
We deeply appreciate it, if you show your appreciation for ORCA by not just citing the generic ORCA reference.

Please note that relegating all ORCA citations to the supporting information does *not* help us.
SI sections are not indexed - citations you put there will not count into any citation statistics
But we need these citations in order to attract the funding resources that allow us to do what we are doing

Therefore, if you are a happy ORCA user, please consider citing a few of the papers listed below in the main body of your paper

In addition to the list printed below, the program has created the file opt.bibtex that contains the list in bibtex format
You can import this file easily into all common literature databanks and citation aid programs


List of essential papers. We consider these as the minimum necessary citations

  1. Neese,F.
     Software update: the ORCA program system, version 5.0
     WIRES Comput. Molec. Sci., 2022 12(1)e1606
     doi.org/10.1002/wcms.1606

List of papers to cite with high priority. The work reported in these papers was absolutely
necessary for this run to complete.
Our perspective: the developers of density functionals and basis sets usually get cited in chemistry papers
Good! But without the algorithms to do something with them, the functionals or basis sets would not do anything.
Hence, in our opinion, the algorithm design and method developments papers are equally worthy of getting cited

  1. Neese,F.
     An improvement of the resolution of the identity approximation for the formation of the Coulomb matrix
     J. Comp. Chem., 2003 24(14)1740-1747
     doi.org/10.1002/jcc.10318
  2. Neese,F.; Wennmohs,F.; Hansen,A.; Becker,U.
     Efficient, approximate and parallel Hartree-Fock and hybrid DFT calculations. A 'chain-of-spheres' algorithm for the Hartree-Fock exchange
     Chem. Phys., 2009 356(1-3)98-109
     doi.org/10.1016/j.chemphys.2008.10.036
  3. Bykov,D.; Petrenko,T.; Izsak,R.; Kossmann,S.; Becker,U.; Valeev,E.; Neese,F.
     Efficient implementation of the analytic second derivatives of Hartree-Fock and hybrid DFT energies: a detailed analysis of different approximations
     Molec. Phys., 2015 113 1961-1977
     doi.org/10.1080/00268976.2015.1025114
  4. Helmich-Paris,B.; de Souza,B.; Neese,F.; Izsák,R.
     An improved chain of spheres for exchange algorithm
     J. Chem. Phys., 2021 155 104109
     doi.org/doi: 10.1063/5.0058766.
  5. Neese,F.
     The SHARK Integral Generation and Digestion System
     J. Comp. Chem., 2022  1-16
     doi.org/10.1002/jcc.26942
  6. Caldeweyher,E.; Bannwarth,C.; Grimme,S.
     Extension of the D3 dispersion coefficient model
     J. Chem. Phys., 2017 147 034112-XXXX
     doi.org/10.1063/1.4993215
  7. Caldeweyher,E.; Ehlert,S.; Hansen,A.; Neugebauer,H.; Spicher,S.; Bannwarth,C.; Grimme,S.
     A generally applicable atomic-charge dependent London dispersion correction
     J. Chem. Phys., 2019 150 154122-XXXX
     doi.org/10.1063/1.5090222
  8. Caldeweyher,E.; Mewes,J.; Ehlert,S.; Grimme,S.
     Extension and evaluation of the D4 London-dispersion model for periodic systems
     Phys. Chem. Chem. Phys., 2020 22(16)8499-8512
     doi.org/10.1039/D0CP00502A

List of suggested additional citations. These are papers that are important in the 'surrounding' of 
of this run, or papers that preceded the highly important papers. If you like your results we are grateful for a citation.

  1. Izsak,R.; Neese,F.
     An overlap fitted chain of spheres exchange method
     J. Chem. Phys., 2011 135 144105
     doi.org/10.1063/1.3646921
  2. Izsak,R.; Hansen,A.; Neese,F.
     The resolution of identity and chain of spheres approximations for the LPNO-CCSD singles Fock term
     Molec. Phys., 2012 110 2413-2417
     doi.org/10.1080/00268976.2012.687466
  3. Neese,F.
     The ORCA program system
     WIRES Comput. Molec. Sci., 2012 2(1)73-78
     doi.org/10.1002/wcms.81
  4. Izsak,R.; Neese,F.; Klopper,W.
     Robust fitting techniques in the chain of spheres approximation to the Fock exchange: The role of the complementary space
     J. Chem. Phys., 2013 139 
     doi.org/10.1063/1.4819264
  5. Neese,F.
     Software update: the ORCA program system, version 4.0
     WIRES Comput. Molec. Sci., 2018 8(1)1-6
     doi.org/10.1002/wcms.1327
  6. Neese,F.; Wennmohs,F.; Becker,U.; Riplinger,C.
     The ORCA quantum chemistry program package
     J. Chem. Phys., 2020 152 Art. No. L224108
     doi.org/10.1063/5.0004608

List of optional additional citations

  1. Neese,F.
     Approximate second-order SCF convergence for spin unrestricted wavefunctions
     Chem. Phys. Lett., 2000 325(1-3)93-98
     doi.org/10.1016/s0009-2614(00)00662-x

Timings for individual modules:

Sum of individual times          ...      410.121 sec (=   6.835 min)
Startup calculation              ...        4.260 sec (=   0.071 min)   1.0 %
SCF iterations                   ...       85.160 sec (=   1.419 min)  20.8 %
Property integrals               ...       64.187 sec (=   1.070 min)  15.7 %
SCF Response                     ...       28.798 sec (=   0.480 min)   7.0 %
Property calculations            ...      159.063 sec (=   2.651 min)  38.8 %
SCF Gradient evaluation          ...       68.610 sec (=   1.143 min)  16.7 %
Geometry relaxation              ...        0.043 sec (=   0.001 min)   0.0 %
                             ****ORCA TERMINATED NORMALLY****
TOTAL RUN TIME: 0 days 0 hours 6 minutes 51 seconds 99 msec
